chemcompute.org
{'UTCtimestamp': '2022-10-03T20:53:32.745385', 'cluster': 'jetstream2', 'clusterJobNumber': '120454', 'status': 'RUNNING', 'nodeList': 'chemcompute-node-1'}
----- GAMESS execution script 'rungms' -----
This job is running on host chemcompute-node-1.novalocal
under operating system Linux at Mon Oct 3 20:53:36 UTC 2022
SLURM has assigned the following compute nodes to this run:
Available scratch disk space (Kbyte units) at beginning of the job is
Filesystem     1K-blocks     Used Available Use% Mounted on
/dev/sda1       62903276 11536664  51366612  19% /
GAMESS temporary binary files will be written to /scratch/120454
GAMESS supplementary output files will be written to /data/slurm/46/460015
Copying input file 460015.inp to your run's scratch directory...
The generated host list is
chemcompute-node-1.novalocal

 Distributed Data Interface kickoff program.
 Initiating 1 compute processes on 1 nodes to run the following command:
 /data/gamess-2019R1-avx2-ddi/gamess.00.x 460015 

          ******************************************************
          *         GAMESS VERSION = 30 JUN 2019 (R1)          *
          *             FROM IOWA STATE UNIVERSITY             *
          * M.W.SCHMIDT, K.K.BALDRIDGE, J.A.BOATZ, S.T.ELBERT, *
          *   M.S.GORDON, J.H.JENSEN, S.KOSEKI, N.MATSUNAGA,   *
          *          K.A.NGUYEN, S.J.SU, T.L.WINDUS,           *
          *       TOGETHER WITH M.DUPUIS, J.A.MONTGOMERY       *
          *         J.COMPUT.CHEM.  14, 1347-1363(1993)        *
          **************** 64 BIT INTEL VERSION ****************

  SINCE 1993, STUDENTS AND POSTDOCS WORKING AT IOWA STATE UNIVERSITY
  AND ALSO IN THEIR VARIOUS JOBS AFTER LEAVING ISU HAVE MADE IMPORTANT
  CONTRIBUTIONS TO THE CODE:
     IVANA ADAMOVIC, CHRISTINE AIKENS, YURI ALEXEEV, POOJA ARORA,
     ANDREY ASADCHEV, ROB BELL, PRADIPTA BANDYOPADHYAY, JONATHAN BENTZ,
     COLLEEN BERTONI, BRETT BODE, KURT BRORSEN, CALEB CARLIN, GALINA CHABAN,
     WEI CHEN, CHEOL HO CHOI, PAUL DAY, ALBERT DEFUSCO, NUWAN DESILVA,
     TIM DUDLEY, DMITRI FEDOROV, ALEX FINDLATER, GRAHAM FLETCHER, 
     MARK FREITAG, KURT GLAESEMANN, ANASTASIA GUNINA,
     DAN KEMP, GRANT MERRILL, NORIYUKI MINEZAWA, JONATHAN MULLIN,
     TAKESHI NAGATA, SEAN NEDD, HEATHER NETZLOFF, BOSILJKA NJEGIC, RYAN OLSON,
     MIKE PAK, BUU PHAM,
     SPENCER PRUITT, LUKE ROSKOP, JIM SHOEMAKER, LYUDMILA SLIPCHENKO,
     TONY SMITH, SAROM SOK LEANG, JIE SONG, TETSUYA TAKETSUGU, SIMON WEBB,
     PENG XU, SOOHAENG YOO, FEDERICO ZAHARIEV

  ADDITIONAL CODE HAS BEEN PROVIDED BY COLLABORATORS IN OTHER GROUPS:
     IOWA STATE UNIVERSITY:
          JOE IVANIC, AARON WEST, LAIMUTIS BYTAUTAS, KLAUS RUEDENBERG
     UNIVERSITY OF TOKYO: KIMIHIKO HIRAO, TAKAHITO NAKAJIMA,
          TAKAO TSUNEDA, MUNEAKI KAMIYA, SUSUMU YANAGISAWA,
          KIYOSHI YAGI, MAHITO CHIBA, SEIKEN TOKURA, NAOAKI KAWAKAMI
     UNIVERSITY OF AARHUS: FRANK JENSEN
     UNIVERSITY OF IOWA: VISVALDAS KAIRYS, HUI LI
     NATIONAL INST. OF STANDARDS AND TECHNOLOGY: WALT STEVENS, DAVID GARMER
     UNIVERSITY OF PISA: BENEDETTA MENNUCCI, JACOPO TOMASI
     UNIVERSITY OF MEMPHIS: HENRY KURTZ, PRAKASHAN KORAMBATH
     UNIVERSITY OF ALBERTA: TOBY ZENG, MARIUSZ KLOBUKOWSKI
     UNIVERSITY OF NEW ENGLAND: MARK SPACKMAN
     MIE UNIVERSITY: HIROAKI UMEDA
     NAT. INST. OF ADVANCED INDUSTRIAL SCIENCE AND TECHNOLOGY: KAZUO KITAURA
     MICHIGAN STATE UNIVERSITY:
          KAROL KOWALSKI, MARTA WLOCH, JEFFREY GOUR, JESSE LUTZ,
          WEI LI, JUN SHEN, J. EMILIANO DEUSTUA, PIOTR PIECUCH
     UNIVERSITY OF MINNESOTA:
          YINAN SHU
     UNIVERSITY OF SILESIA: MONIKA MUSIAL, STANISLAW KUCHARSKI
     FACULTES UNIVERSITAIRES NOTRE-DAME DE LA PAIX:
          OLIVIER QUINET, BENOIT CHAMPAGNE
     UNIVERSITY OF CALIFORNIA - SANTA BARBARA: BERNARD KIRTMAN
     INSTITUTE FOR MOLECULAR SCIENCE:
          KAZUYA ISHIMURA, MICHIO KATOUDA, AND SHIGERU NAGASE
     UNIVERSITY OF NOTRE DAME: ANNA POMOGAEVA, DAN CHIPMAN
     KYUSHU UNIVERSITY:
          HARUYUKI NAKANO,
          FENG LONG GU, JACEK KORCHOWIEC, MARCIN MAKOWSKI, AND YURIKO AOKI,
          HIROTOSHI MORI AND EISAKU MIYOSHI
     PENNSYLVANIA STATE UNIVERSITY:
          TZVETELIN IORDANOV, CHET SWALINA, JONATHAN SKONE,
          SHARON HAMMES-SCHIFFER
     WASEDA UNIVERSITY:
          MASATO KOBAYASHI, TOMOKO AKAMA, TSUGUKI TOUMA,
          TAKESHI YOSHIKAWA, YASUHIRO IKABATA, JUNJI SEINO,
          YUYA NAKAJIMA, HIROMI NAKAI
     NANJING UNIVERSITY: SHUHUA LI
     UNIVERSITY OF NEBRASKA:
          PEIFENG SU, DEJUN SI, NANDUN THELLAMUREGE, YALI WANG, HUI LI
     UNIVERSITY OF ZURICH: ROBERTO PEVERATI, KIM BALDRIDGE
     N. COPERNICUS UNIVERSITY AND JACKSON STATE UNIVERSITY:
          MARIA BARYSZ
     UNIVERSITY OF COPENHAGEN: Jimmy Kromann, CASPER STEINMANN
     TOKYO INSTITUTE OF TECHNOLOGY: HIROYA NAKATA
     NAGOYA UNIVERSITY: YOSHIO NISHIMOTO, STEPHAN IRLE
     MOSCOW STATE UNIVERSITY: VLADIMIR MIRONOV
     A.N.NESMEYANOV INSTITUTE OF ORGANOELEMENT COMPOUNDS OF RUSSIAN ACADEMY OF SCIENCES:
          IGOR S. GERASIMOV

 EXECUTION OF GAMESS BEGUN Mon Oct  3 20:53:36 2022

            ECHO OF THE FIRST FEW INPUT CARDS -
 INPUT CARD>!                                                                               
 INPUT CARD>!   GAMESS Calculation input file                                               
 INPUT CARD>!                                                                               
 INPUT CARD>!                                                                               
 INPUT CARD> $CONTRL SCFTYP=RHF MAXIT=200 RUNTYP=OPTIMIZE                                   
 INPUT CARD>         COORD=UNIQUE MULT=1                                                    
 INPUT CARD>         ICHARG=0                                                               
 INPUT CARD>         DFTTYP=B3LYP                                                           
 INPUT CARD>         MOLPLT=.FALSE. PLTORB=.FALSE.  $END                                    
 INPUT CARD> $SYSTEM TIMLIM=2879 MWORDS=250  $END                                           
 INPUT CARD>                                                                                
 INPUT CARD> $FORCE METHOD=SEMINUM NVIB=2 $END                                              
 INPUT CARD> $STATPT OPTTOL=0.0005 NSTEP=999 $END                                           
 INPUT CARD> $STATPT IHREP=0 HSSEND=.TRUE.  $END                                            
 INPUT CARD>                                                                                
 INPUT CARD> $DFT    METHOD=GRID  NLEB=590  $END                                            
 INPUT CARD>                                                                                
 INPUT CARD> $BASIS  GBASIS=N31 NGAUSS=6                                                    
 INPUT CARD>         NDFUNC=1   NPFUNC=0  $END                                              
 INPUT CARD>                                                                                
 INPUT CARD> $SCF    DIRSCF=.T. $END                                                        
 INPUT CARD> $GUESS  GUESS=HUCKEL  $END                                                     
 INPUT CARD>                                                                                
 INPUT CARD> $DATA                                                                          
 INPUT CARD>                                                                                
 INPUT CARD>  C1                                                                            
 INPUT CARD>C     6.0     0.46659    -0.56382     0.20859                                   
 INPUT CARD>C     6.0     1.78252    -0.52422    -0.06277                                   
 INPUT CARD>C     6.0    -0.43830     0.56671    -0.10648                                   
 INPUT CARD>O     8.0    -1.65530     0.45239    -0.02169                                   
 INPUT CARD>H     1.0     0.00255    -1.43053     0.65823                                   
 INPUT CARD>H     1.0     2.25578     0.32905    -0.53121                                   
 INPUT CARD>H     1.0     2.40912    -1.37537     0.17488                                   
 INPUT CARD>H     1.0     0.04245     1.50438    -0.42592                                   
 INPUT CARD> $END                                                                           
 INPUT CARD>                                                                                
 INPUT CARD>                                                                                
 INPUT CARD>! Customizations after this line are persisted when using Do More Calculations  
  250000000 WORDS OF MEMORY AVAILABLE

     BASIS OPTIONS
     -------------
     GBASIS=N31          IGAUSS=       6      POLAR=POPN31  
     NDFUNC=       1     NFFUNC=       0     DIFFSP=       F
     NPFUNC=       0      DIFFS=       F     BASNAM=        


     RUN TITLE
     ---------
                                                                                 

 THE POINT GROUP OF THE MOLECULE IS C1      
 THE ORDER OF THE PRINCIPAL AXIS IS     0

 ATOM      ATOMIC                      COORDINATES (BOHR)
           CHARGE         X                   Y                   Z
 C           6.0     0.8817272486       -1.0654653064        0.3941779438
 C           6.0     3.3684743676       -0.9906321573       -0.1186181002
 C           6.0    -0.8282669004        1.0709266145       -0.2012180232
 O           8.0    -3.1280634275        0.8548931396       -0.0409881567
 H           1.0     0.0048188013       -2.7033097172        1.2438743369
 H           1.0     4.2628060886        0.6218143363       -1.0038413419
 H           1.0     4.5525766715       -2.5990724317        0.3304752807
 H           1.0     0.0802188682        2.8428659814       -0.8048720927

          INTERNUCLEAR DISTANCES (ANGS.)
          ------------------------------

                1 C          2 C          3 C          4 O          5 H     

   1 C       0.0000000    1.3442009 *  1.4819558 *  2.3639223 *  1.0810622 *
   2 C       1.3442009 *  0.0000000    2.4746879 *  3.5740818    2.1235659 *
   3 C       1.4819558 *  2.4746879 *  0.0000000    1.2252948 *  2.1835974 *
   4 O       2.3639223 *  3.5740818    1.2252948 *  0.0000000    2.5992587 *
   5 H       1.0810622 *  2.1235659 *  2.1835974 *  2.5992587 *  0.0000000  
   6 H       2.1320698 *  1.0823496 *  2.7376897 *  3.9460575    3.0964390  
   7 H       2.1055100 *  1.0833104 *  3.4581265    4.4608134    2.4552493 *
   8 H       2.2045292 *  2.6972096 *  1.1010847 *  2.0377536 *  3.1290046  

                6 H          7 H          8 H     

   1 C       2.1320698 *  2.1055100 *  2.2045292 *
   2 C       1.0823496 *  1.0833104 *  2.6972096 *
   3 C       2.7376897 *  3.4581265    1.1010847 *
   4 O       3.9460575    4.4608134    2.0377536 *
   5 H       3.0964390    2.4552493 *  3.1290046  
   6 H       0.0000000    1.8512492 *  2.5082496 *
   7 H       1.8512492 *  0.0000000    3.7755857  
   8 H       2.5082496 *  3.7755857    0.0000000  

  * ... LESS THAN  3.000


     ATOMIC BASIS SET
     ----------------
 THE CONTRACTED PRIMITIVE FUNCTIONS HAVE BEEN UNNORMALIZED
 THE CONTRACTED BASIS FUNCTIONS ARE NOW NORMALIZED TO UNITY

  SHELL TYPE  PRIMITIVE        EXPONENT          CONTRACTION COEFFICIENT(S)

 C         

      1   S       1          3047.5248800    0.001834737132
      1   S       2           457.3695180    0.014037322813
      1   S       3           103.9486850    0.068842622264
      1   S       4            29.2101553    0.232184443216
      1   S       5             9.2866630    0.467941348435
      1   S       6             3.1639270    0.362311985337

      2   L       7             7.8682723   -0.119332419775    0.068999066591
      2   L       8             1.8812885   -0.160854151696    0.316423960957
      2   L       9             0.5442493    1.143456437840    0.744308290898

      3   L      10             0.1687145    1.000000000000    1.000000000000

      4   D      11             0.8000000    1.000000000000

 C         

      5   S      12          3047.5248800    0.001834737132
      5   S      13           457.3695180    0.014037322813
      5   S      14           103.9486850    0.068842622264
      5   S      15            29.2101553    0.232184443216
      5   S      16             9.2866630    0.467941348435
      5   S      17             3.1639270    0.362311985337

      6   L      18             7.8682723   -0.119332419775    0.068999066591
      6   L      19             1.8812885   -0.160854151696    0.316423960957
      6   L      20             0.5442493    1.143456437840    0.744308290898

      7   L      21             0.1687145    1.000000000000    1.000000000000

      8   D      22             0.8000000    1.000000000000

 C         

      9   S      23          3047.5248800    0.001834737132
      9   S      24           457.3695180    0.014037322813
      9   S      25           103.9486850    0.068842622264
      9   S      26            29.2101553    0.232184443216
      9   S      27             9.2866630    0.467941348435
      9   S      28             3.1639270    0.362311985337

     10   L      29             7.8682723   -0.119332419775    0.068999066591
     10   L      30             1.8812885   -0.160854151696    0.316423960957
     10   L      31             0.5442493    1.143456437840    0.744308290898

     11   L      32             0.1687145    1.000000000000    1.000000000000

     12   D      33             0.8000000    1.000000000000

 O         

     13   S      34          5484.6716600    0.001831074430
     13   S      35           825.2349460    0.013950172200
     13   S      36           188.0469580    0.068445078098
     13   S      37            52.9645000    0.232714335992
     13   S      38            16.8975704    0.470192897984
     13   S      39             5.7996353    0.358520852987

     14   L      40            15.5396162   -0.110777549525    0.070874268231
     14   L      41             3.5999336   -0.148026262701    0.339752839147
     14   L      42             1.0137618    1.130767015354    0.727158577316

     15   L      43             0.2700058    1.000000000000    1.000000000000

     16   D      44             0.8000000    1.000000000000

 H         

     17   S      45            18.7311370    0.033494604338
     17   S      46             2.8253944    0.234726953484
     17   S      47             0.6401217    0.813757326146

     18   S      48             0.1612778    1.000000000000

 H         

     19   S      49            18.7311370    0.033494604338
     19   S      50             2.8253944    0.234726953484
     19   S      51             0.6401217    0.813757326146

     20   S      52             0.1612778    1.000000000000

 H         

     21   S      53            18.7311370    0.033494604338
     21   S      54             2.8253944    0.234726953484
     21   S      55             0.6401217    0.813757326146

     22   S      56             0.1612778    1.000000000000

 H         

     23   S      57            18.7311370    0.033494604338
     23   S      58             2.8253944    0.234726953484
     23   S      59             0.6401217    0.813757326146

     24   S      60             0.1612778    1.000000000000

 TOTAL NUMBER OF BASIS SET SHELLS             =   24
 NUMBER OF CARTESIAN GAUSSIAN BASIS FUNCTIONS =   68
 NUMBER OF ELECTRONS                          =   30
 CHARGE OF MOLECULE                           =    0
 SPIN MULTIPLICITY                            =    1
 NUMBER OF OCCUPIED ORBITALS (ALPHA)          =   15
 NUMBER OF OCCUPIED ORBITALS (BETA )          =   15
 TOTAL NUMBER OF ATOMS                        =    8
 THE NUCLEAR REPULSION ENERGY IS      102.5545182577

 SELECTED MURRAY-HANDY-LAMING RADIAL GRID

 LEGACY BECKE'S FUZZY CELL METHOD

 SELECTED ORIGINAL BECKE'S PARTITION FUNCTION

     LEBEDEV GRID-BASED DFT OPTIONS
     ------------------------------
     DFTTYP=B3LYP   
     NRAD  =      96     NLEB  =     590
     NRAD0 =      24     NLEB0 =     110
     SWOFF =    5.00E-03 (PURE SCF -> DFT)
     SWITCH=    3.00E-04 (COARSE -> TIGHT GRID)
     THRESH=    0.00E+00 GTHRE=    1.00E+00

 GRIMME'S EMPIRICAL DISPERSION CORRECTION= F

     $CONTRL OPTIONS
     ---------------
 SCFTYP=RHF          RUNTYP=OPTIMIZE     EXETYP=RUN     
 MPLEVL=       0     CITYP =NONE         CCTYP =NONE         VBTYP =NONE    
 DFTTYP=B3LYP        TDDFT =NONE    
 MULT  =       1     ICHARG=       0     NZVAR =       0     COORD =UNIQUE  
 PP    =NONE         RELWFN=NONE         LOCAL =NONE         NUMGRD=       F
 ISPHER=      -1     NOSYM =       0     MAXIT =     200     UNITS =ANGS    
 PLTORB=       F     MOLPLT=       F     AIMPAC=       F     FRIEND=        
 NPRINT=       7     IREST =       0     GEOM  =INPUT   
 NORMF =       0     NORMP =       0     ITOL  =      20     ICUT  =       9
 INTTYP=BEST         GRDTYP=BEST         QMTTOL= 1.0E-06

     $SYSTEM OPTIONS
     ---------------
  REPLICATED MEMORY=   250000000 WORDS (ON EVERY NODE).
 DISTRIBUTED MEMDDI=           0 MILLION WORDS IN AGGREGATE,
 MEMDDI DISTRIBUTED OVER   1 PROCESSORS IS           0 WORDS/PROCESSOR.
 TOTAL MEMORY REQUESTED ON EACH PROCESSOR=   250000000 WORDS.
 TIMLIM=        2879.00 MINUTES, OR       2.0 DAYS.
 PARALL= F  BALTYP=  DLB     KDIAG=    0  COREFL= F
 MXSEQ2=     300 MXSEQ3=     150  mem10=         0

          ----------------
          PROPERTIES INPUT
          ----------------

     MOMENTS            FIELD           POTENTIAL          DENSITY
 IEMOM =       1   IEFLD =       0   IEPOT =       0   IEDEN =       0
 WHERE =COMASS     WHERE =NUCLEI     WHERE =NUCLEI     WHERE =NUCLEI  
 OUTPUT=BOTH       OUTPUT=BOTH       OUTPUT=BOTH       OUTPUT=BOTH    
 IEMINT=       0   IEFINT=       0                     IEDINT=       0
                                                       MORB  =       0
          EXTRAPOLATION IN EFFECT
          DIIS IN EFFECT
 ORBITAL PRINTING OPTION: NPREO=     1    68     2     1

     -------------------------------
     INTEGRAL TRANSFORMATION OPTIONS
     -------------------------------
     NWORD  =            0
     CUTOFF = 1.0E-09     MPTRAN =       0
     DIRTRF =       T     AOINTS =DUP     

          ----------------------
          INTEGRAL INPUT OPTIONS
          ----------------------
 NOPK  =       1 NORDER=       0 SCHWRZ=       T

     ------------------------------------------
     THE POINT GROUP IS C1 , NAXIS= 0, ORDER= 1
     ------------------------------------------

     DIMENSIONS OF THE SYMMETRY SUBSPACES ARE
 A   =   68

 ..... DONE SETTING UP THE RUN .....
 STEP CPU TIME =     0.01 TOTAL CPU TIME =          0.0 (      0.0 MIN)
 TOTAL WALL CLOCK TIME=          0.0 SECONDS, CPU UTILIZATION IS    50.00%


          -----------------------------
          STATIONARY POINT LOCATION RUN
          -----------------------------

 OBTAINING INITIAL HESSIAN, HESS=GUESS   
 CARTESIAN COORDINATE OPTIMIZATION USING BADGER'S RULE FORCE CONSTANT GUESS

          PARAMETERS CONTROLLING GEOMETRY SEARCH ARE
          METHOD =QA                  UPHESS =BFGS    
          NNEG   =         0          NFRZ   =         0
          NSTEP  =       999          IFOLOW =         1
          HESS   =GUESS               RESTAR =         F
          IHREP  =         0          HSSEND =         T
          NPRT   =         0          NPUN   =         0
          OPTTOL = 5.000E-04          RMIN   = 1.500E-03
          RMAX   = 1.000E-01          RLIM   = 7.000E-02
          DXMAX  = 3.000E-01          PURIFY =         F
          MOVIE  =         F          TRUPD  =         T
          TRMAX  = 5.000E-01          TRMIN  = 5.000E-02
          ITBMAT =         5          STPT   =         F
          STSTEP = 1.000E-02          PROJCT=          T

 BEGINNING GEOMETRY SEARCH POINT NSERCH=   0 ...

 COORDINATES OF ALL ATOMS ARE (ANGS)
   ATOM   CHARGE       X              Y              Z
 ------------------------------------------------------------
 C           6.0   0.4665900000  -0.5638200000   0.2085900000
 C           6.0   1.7825200000  -0.5242200000  -0.0627700000
 C           6.0  -0.4383000000   0.5667100000  -0.1064800000
 O           8.0  -1.6553000000   0.4523900000  -0.0216900000
 H           1.0   0.0025500000  -1.4305300000   0.6582300000
 H           1.0   2.2557800000   0.3290500000  -0.5312100000
 H           1.0   2.4091200000  -1.3753700000   0.1748800000
 H           1.0   0.0424500000   1.5043800000  -0.4259200000

          ********************
          1 ELECTRON INTEGRALS
          ********************
 ...... END OF ONE-ELECTRON INTEGRALS ......
 STEP CPU TIME =     0.00 TOTAL CPU TIME =          0.0 (      0.0 MIN)
 TOTAL WALL CLOCK TIME=          0.0 SECONDS, CPU UTILIZATION IS    33.33%

          -------------
          GUESS OPTIONS
          -------------
          GUESS =HUCKEL            NORB  =       0          NORDER=       0
          MIX   =       F          PRTMO =       F          PUNMO =       F
          TOLZ  = 1.0E-08          TOLE  = 1.0E-05
          SYMDEN=       F          PURIFY=       F

 INITIAL GUESS ORBITALS GENERATED BY HUCKEL   ROUTINE.
 HUCKEL GUESS REQUIRES     42032 WORDS.

 SYMMETRIES FOR INITIAL GUESS ORBITALS FOLLOW.   BOTH SET(S).
    15 ORBITALS ARE OCCUPIED (    4 CORE ORBITALS).
     5=A        6=A        7=A        8=A        9=A       10=A       11=A   
    12=A       13=A       14=A       15=A       16=A       17=A       18=A   
    19=A       20=A       21=A       22=A       23=A       24=A       25=A   
 ...... END OF INITIAL ORBITAL SELECTION ......
 STEP CPU TIME =     0.02 TOTAL CPU TIME =          0.0 (      0.0 MIN)
 TOTAL WALL CLOCK TIME=          0.0 SECONDS, CPU UTILIZATION IS    60.00%

                    ----------------------
                    AO INTEGRAL TECHNOLOGY
                    ----------------------
     S,P,L SHELL ROTATED AXIS INTEGRALS, REPROGRAMMED BY
        KAZUYA ISHIMURA (IMS) AND JOSE SIERRA (SYNSTAR).
     S,P,D,L SHELL ROTATED AXIS INTEGRALS PROGRAMMED BY
        KAZUYA ISHIMURA (INSTITUTE FOR MOLECULAR SCIENCE).
     S,P,D,F,G SHELL TO TOTAL QUARTET ANGULAR MOMENTUM SUM 5,
        ERIC PROGRAM BY GRAHAM FLETCHER (ELORET AND NASA ADVANCED
        SUPERCOMPUTING DIVISION, AMES RESEARCH CENTER).
     S,P,D,F,G,L SHELL GENERAL RYS QUADRATURE PROGRAMMED BY
        MICHEL DUPUIS (PACIFIC NORTHWEST NATIONAL LABORATORY).

          --------------------
          2 ELECTRON INTEGRALS
          --------------------

 DIRECT SCF METHOD SKIPS INTEGRAL STORAGE ON DISK.
 DIRECT TRANSFORMATION SKIPS AO INTEGRAL STORAGE ON DISK.
  ...... END OF TWO-ELECTRON INTEGRALS .....
 STEP CPU TIME =     0.00 TOTAL CPU TIME =          0.0 (      0.0 MIN)
 TOTAL WALL CLOCK TIME=          0.1 SECONDS, CPU UTILIZATION IS    50.00%

          --------------------------
             R-B3LYP SCF CALCULATION
          --------------------------

     NUCLEAR ENERGY =       102.5545182577
     MAXIT =  200     NPUNCH=    2
     EXTRAP=T  DAMP=F  SHIFT=F  RSTRCT=F  DIIS=T  DEM=F  SOSCF=F
         DENSITY MATRIX CONVERGENCE THRESHOLD=  2.00E-05
     COARSE -> FINE DFT GRID SWITCH THRESHOLD=  3.00E-04 (SWITCH IN $DFT)
                   HF -> DFT SWITCH THRESHOLD=  5.00E-03 (SWOFF IN $DFT)
     MEMORY REQUIRED FOR RHF ITERS=    620217 WORDS.

 DIRECT SCF CALCULATION, SCHWRZ=T   FDIFF=T,  DIRTHR=  0.00E+00 NITDIR=10
 SCHWARZ INEQUALITY OVERHEAD:      2343 INTEGRALS, T=        0.00

 DFT CODE IS SWITCHING FROM THE FINE GRID NRAD= 96,  NLEB=  590
                      TO THE COARSE GRID NRAD0= 24, NLEB0=  110

     EXCHANGE FUNCTIONAL   =B88&HFX   
     CORRELATION FUNCTIONAL=LYP88&VWN5
     DFT THRESHOLD         =.883E-08
     GRID CHANGE THRESHOLD =.300E-03
 FOR AN EULER-MACLAURIN QUADRATURE USING  96 RADIAL POINTS:
 SMALLEST GAUSSIAN PRIMITIVE EXPONENT=        0.1612777588 OF TYPE -S-
 ON ATOM NUMBER   5 HAS RADIAL NORMALIZATION=  1.000000
  LARGEST GAUSSIAN PRIMITIVE EXPONENT=     5484.6716600000 OF TYPE -S-
 ON ATOM NUMBER   4 HAS RADIAL NORMALIZATION=  1.000000
 DFT IS SWITCHED OFF, PERFORMING PURE SCF UNTIL SWOFF THRESHOLD IS REACHED.

                                                                                   NONZERO     BLOCKS
 ITER EX DEM     TOTAL ENERGY        E CHANGE  DENSITY CHANGE    DIIS ERROR      INTEGRALS    SKIPPED
          * * *   INITIATING DIIS PROCEDURE   * * *
   1  0  0     -190.2071538542  -190.2071538542   0.306082463   0.422086182        2548306       4329
   2  1  0     -190.6951789479    -0.4880250938   0.144176772   0.119199368        2547907       4611
   3  2  0     -190.7345669277    -0.0393879798   0.070878203   0.075051984        2544903       5004
   4  3  0     -190.7579753130    -0.0234083853   0.011694075   0.005941131        2538076       5420
   5  4  0     -190.7585344555    -0.0005591425   0.006451615   0.002658509        2522285       6075
   6  5  0     -190.7586195041    -0.0000850486   0.002693651   0.001137995        2504118       6762
 CONVERGED TO SWOFF, SO DFT CALCULATION IS NOW SWITCHED ON.
          * * *   INITIATING DIIS PROCEDURE   * * *
   7  6  0     -191.7798487739    -1.0212292697   0.123458212   0.100941620        2548512       4334
   8  7  0     -191.7973890211    -0.0175402473   0.068552741   0.035532128        2545430       4904
   9  8  0     -191.7920989956     0.0052900256   0.055895858   0.054074053        2538935       5291
  10  9  0     -191.8017021526    -0.0096031571   0.009764141   0.009119058        2534150       5575
  11 10  0     -191.8020328861    -0.0003307335   0.001343034   0.000889237        2510144       6355
  12 11  0     -191.8020346043    -0.0000017182   0.000768691   0.000560694        2462321       7776
  13 12  0     -191.8020369503    -0.0000023460   0.000080736   0.000065793        2413753       9024
 DFT CODE IS SWITCHING BACK TO THE FINE GRID
          * * *   INITIATING DIIS PROCEDURE   * * *
  14 13  0     -191.8000135231     0.0020234272   0.002892081   0.001560833        2548648       4287
  15 14  0     -191.8000223708    -0.0000088476   0.000691485   0.000172997        2493790       7091
  16 15  0     -191.8000220470     0.0000003238   0.000449381   0.000352931        2419978       9098
  17 16  0     -191.8000226150    -0.0000005680   0.000088967   0.000076361        2387764       9806
  18 17  0     -191.8000226274    -0.0000000124   0.000026890   0.000025012        2332328      11020
  19 18  0     -191.8000226298    -0.0000000025   0.000009301   0.000005689        2265295      12403
  20 19  0     -191.8000226300    -0.0000000002   0.000004181   0.000003102        2185606      14456

          -----------------
          DENSITY CONVERGED
          -----------------
     TIME TO FORM FOCK OPERATORS=       9.5 SECONDS (       0.5 SEC/ITER)
     FOCK TIME ON FIRST ITERATION=       0.1, LAST ITERATION=       1.1
     TIME TO SOLVE SCF EQUATIONS=       0.1 SECONDS (       0.0 SEC/ITER)

 FINAL R-B3LYP ENERGY IS     -191.8000226300 AFTER  20 ITERATIONS
 DFT EXCHANGE + CORRELATION ENERGY =       -21.1465228851
 TOTAL ELECTRON NUMBER             =        29.9999990755

          ------------
          EIGENVECTORS
          ------------

                      1          2          3          4          5
                  -19.1441   -10.2747   -10.2160   -10.2068    -1.0338
                     A          A          A          A          A   
    1  C  1  S   -0.000010   0.002016   0.043565   0.991794  -0.020664
    2  C  1  S    0.000010  -0.000083   0.001667   0.049602   0.037810
    3  C  1  X    0.000013   0.000120  -0.000400   0.000148  -0.022559
    4  C  1  Y    0.000042  -0.000291  -0.000024   0.000164   0.018050
    5  C  1  Z   -0.000021   0.000097   0.000087  -0.000111  -0.004816
    6  C  1  S    0.000587   0.003161   0.003865  -0.015557   0.023197
    7  C  1  X   -0.000560  -0.000450   0.001754  -0.000679  -0.021539
    8  C  1  Y   -0.000207   0.001596  -0.000081  -0.001753   0.002931
    9  C  1  Z    0.000118  -0.000495  -0.000331   0.000908   0.000631
   10  C  1 XX   -0.000086  -0.000364  -0.000716  -0.009101   0.003786
   11  C  1 YY   -0.000005  -0.000378  -0.000635  -0.009427   0.002504
   12  C  1 ZZ   -0.000004  -0.000195  -0.000572  -0.009585  -0.001798
   13  C  1 XY    0.000013   0.000192   0.000014  -0.000007  -0.005066
   14  C  1 XZ   -0.000002  -0.000048   0.000030  -0.000116   0.001062
   15  C  1 YZ   -0.000014   0.000070   0.000033  -0.000099  -0.001833
   16  C  2  S    0.000023  -0.000051   0.991738  -0.044038  -0.003847
   17  C  2  S    0.000104  -0.000222   0.049204  -0.002717   0.009517
   18  C  2  X   -0.000069   0.000093  -0.000034   0.000397  -0.006414
   19  C  2  Y    0.000055  -0.000110   0.000019  -0.000002   0.002423
   20  C  2  Z    0.000002   0.000036  -0.000025  -0.000076   0.000128
   21  C  2  S   -0.000058  -0.000058  -0.012771   0.005775   0.011640
   22  C  2  X    0.000312  -0.000447   0.000918  -0.002128   0.001232
   23  C  2  Y   -0.000411   0.000425   0.000021   0.000649  -0.010813
   24  C  2  Z    0.000108  -0.000139  -0.000153   0.000129   0.004767
   25  C  2 XX    0.000011   0.000084  -0.009250   0.000041   0.000320
   26  C  2 YY    0.000023  -0.000021  -0.009503   0.000225  -0.000009
   27  C  2 ZZ    0.000062  -0.000100  -0.009711   0.000277   0.000096
   28  C  2 XY    0.000018   0.000008  -0.000010  -0.000036  -0.000225
   29  C  2 XZ    0.000001  -0.000045  -0.000119   0.000074   0.000009
   30  C  2 YZ    0.000013  -0.000055  -0.000137   0.000047   0.000094
   31  C  3  S    0.000014   0.992821  -0.000108  -0.002289  -0.117825
   32  C  3  S    0.000549   0.048690  -0.000173  -0.000378   0.229857
   33  C  3  X   -0.000013  -0.000763  -0.000023  -0.000142  -0.176499
   34  C  3  Y   -0.000047  -0.000131   0.000011   0.000220  -0.021842
   35  C  3  Z    0.000021   0.000071   0.000003  -0.000072   0.014093
   36  C  3  S   -0.003235  -0.008946  -0.000005   0.004981   0.071795
   37  C  3  X    0.002895  -0.003235   0.000531   0.001279   0.029145
   38  C  3  Y    0.000844   0.000127   0.000121  -0.001595   0.019894
   39  C  3  Z   -0.000417   0.000135  -0.000072   0.000419  -0.007994
   40  C  3 XX   -0.000836  -0.008445  -0.000001  -0.000234   0.022522
   41  C  3 YY   -0.000035  -0.009444  -0.000009  -0.000385  -0.016955
   42  C  3 ZZ   -0.000017  -0.009676  -0.000052  -0.000174  -0.018766
   43  C  3 XY   -0.000096   0.000087  -0.000049   0.000183   0.005623
   44  C  3 XZ    0.000067  -0.000087   0.000001  -0.000046  -0.003781
   45  C  3 YZ    0.000014  -0.000101  -0.000018   0.000104  -0.001027
   46  O  4  S    0.992771  -0.000133  -0.000035   0.000018  -0.194602
   47  O  4  S    0.025707   0.000363  -0.000153   0.000040   0.425594
   48  O  4  X    0.001135  -0.000053  -0.000012   0.000021   0.159907
   49  O  4  Y    0.000117   0.000012   0.000005  -0.000009   0.013663
   50  O  4  Z   -0.000083   0.000003  -0.000008   0.000014  -0.010639
   51  O  4  S    0.013572  -0.002620   0.000857  -0.000572   0.399663
   52  O  4  X    0.001563  -0.001867   0.000249  -0.000238   0.056547
   53  O  4  Y    0.000052  -0.000290  -0.000062   0.000191   0.001770
   54  O  4  Z   -0.000063   0.000144   0.000032  -0.000078  -0.002465
   55  O  4 XX   -0.007563  -0.000355  -0.000067   0.000081   0.010425
   56  O  4 YY   -0.008076   0.000247  -0.000104   0.000102  -0.010109
   57  O  4 ZZ   -0.008088   0.000374  -0.000107   0.000001  -0.006160
   58  O  4 XY    0.000034  -0.000078  -0.000027   0.000004   0.001944
   59  O  4 XZ   -0.000032   0.000054   0.000009  -0.000007  -0.001297
   60  O  4 YZ   -0.000007   0.000056  -0.000004  -0.000033   0.001551
   61  H  5  S   -0.000027  -0.000040  -0.000096  -0.000355   0.007945
   62  H  5  S   -0.000336   0.000361   0.000023   0.001713  -0.001878
   63  H  6  S    0.000085  -0.000113  -0.000346  -0.000125   0.002856
   64  H  6  S    0.000030  -0.000021   0.002177  -0.000507   0.003604
   65  H  7  S   -0.000033   0.000040  -0.000335  -0.000016   0.000046
   66  H  7  S   -0.000278   0.000474   0.002152   0.000081  -0.006813
   67  H  8  S   -0.000039  -0.000262  -0.000056  -0.000119   0.028429
   68  H  8  S   -0.000547   0.002441  -0.000161  -0.000106  -0.016753

                      6          7          8          9         10
                   -0.7965    -0.6462    -0.5736    -0.4774    -0.4690
                     A          A          A          A          A   
    1  C  1  S   -0.159900   0.058517  -0.095417  -0.007187   0.032815
    2  C  1  S    0.313328  -0.119661   0.194051   0.012748  -0.070931
    3  C  1  X    0.077108   0.188278  -0.056027   0.145077  -0.261841
    4  C  1  Y    0.027015  -0.097571  -0.163341  -0.202389  -0.085812
    5  C  1  Z   -0.026352   0.002792   0.074475   0.069612   0.084562
    6  C  1  S    0.205707  -0.104879   0.208034   0.008977  -0.030272
    7  C  1  X    0.000173   0.046178  -0.028673   0.070520  -0.052575
    8  C  1  Y   -0.013183  -0.015393  -0.043834  -0.076738  -0.029951
    9  C  1  Z    0.005568  -0.003204   0.022630   0.025761   0.022788
   10  C  1 XX    0.004070   0.010262  -0.002354  -0.000926   0.001925
   11  C  1 YY   -0.002855  -0.009796  -0.001483   0.002053   0.008158
   12  C  1 ZZ   -0.012467   0.003451  -0.005594  -0.000602   0.001925
   13  C  1 XY    0.000672   0.005622   0.006388   0.001229  -0.006261
   14  C  1 XZ   -0.004821  -0.003341  -0.003618  -0.000922   0.002570
   15  C  1 YZ   -0.006310   0.005971  -0.004654  -0.000661  -0.002034
   16  C  2  S   -0.145282  -0.131061   0.048955   0.007670  -0.006861
   17  C  2  S    0.281018   0.262404  -0.098747  -0.014191   0.016428
   18  C  2  X   -0.097924   0.074894  -0.123280  -0.102931   0.330881
   19  C  2  Y    0.002549  -0.033173  -0.092920  -0.255459  -0.146540
   20  C  2  Z    0.017214  -0.002124   0.062953   0.135146  -0.003624
   21  C  2  S    0.218684   0.243735  -0.105340  -0.049630   0.007136
   22  C  2  X   -0.011409   0.034311  -0.036732  -0.027810   0.132508
   23  C  2  Y    0.008026  -0.012323  -0.035816  -0.093959  -0.062749
   24  C  2  Z   -0.001370  -0.001895   0.021775   0.047991  -0.000396
   25  C  2 XX    0.007781  -0.004969   0.006035   0.002665  -0.006131
   26  C  2 YY   -0.002218   0.005715  -0.007172  -0.004851   0.013529
   27  C  2 ZZ   -0.012150  -0.008667   0.002686  -0.001121   0.001088
   28  C  2 XY   -0.001327  -0.000402   0.002715  -0.005959  -0.006236
   29  C  2 XZ   -0.004627  -0.001512  -0.001157   0.001922   0.003878
   30  C  2 YZ   -0.006264  -0.008858   0.005386   0.004423  -0.005524
   31  C  3  S   -0.050790   0.116185   0.086469  -0.013772  -0.050453
   32  C  3  S    0.100580  -0.246357  -0.183737   0.027231   0.121784
   33  C  3  X    0.121228  -0.169508  -0.079457  -0.051911  -0.120504
   34  C  3  Y   -0.052092   0.038823  -0.203173   0.302729  -0.091693
   35  C  3  Z    0.009509  -0.008109   0.073276  -0.084570   0.053192
   36  C  3  S    0.081206  -0.211113  -0.184064   0.067191   0.105137
   37  C  3  X    0.039082  -0.054545  -0.051776  -0.022270  -0.034023
   38  C  3  Y   -0.007388  -0.002641  -0.054694   0.088345  -0.035936
   39  C  3  Z   -0.000801   0.001912   0.022042  -0.021710   0.023215
   40  C  3 XX   -0.004252   0.014383   0.005328  -0.000149  -0.010501
   41  C  3 YY    0.007438  -0.009451  -0.000407   0.004430  -0.001373
   42  C  3 ZZ   -0.003431   0.006521   0.005995  -0.001112  -0.003489
   43  C  3 XY   -0.007557   0.001627  -0.007718   0.003978   0.005522
   44  C  3 XZ    0.002020  -0.000948   0.002798  -0.001193  -0.001213
   45  C  3 YZ   -0.003782   0.006735   0.002622  -0.002954  -0.002403
   46  O  4  S    0.039805  -0.067727  -0.036055   0.014601   0.064462
   47  O  4  S   -0.092213   0.154957   0.082841  -0.025356  -0.134657
   48  O  4  X   -0.003445  -0.059831  -0.056506   0.029385   0.263239
   49  O  4  Y   -0.013641   0.014179  -0.091200   0.183448  -0.045942
   50  O  4  Z    0.003974  -0.003022   0.033996  -0.052901   0.018072
   51  O  4  S   -0.082199   0.188277   0.103303  -0.081837  -0.277126
   52  O  4  X    0.005270  -0.035410  -0.033419   0.003123   0.129493
   53  O  4  Y   -0.002439   0.007260  -0.046104   0.100092  -0.029838
   54  O  4  Z    0.000757  -0.001219   0.017177  -0.028743   0.011711
   55  O  4 XX    0.001356  -0.009772  -0.005950   0.001892   0.022904
   56  O  4 YY   -0.000003  -0.000620  -0.000533   0.004972   0.002165
   57  O  4 ZZ   -0.000523   0.000904   0.000514   0.002987   0.000235
   58  O  4 XY   -0.001197   0.000923  -0.009081   0.014785  -0.003154
   59  O  4 XZ    0.000242   0.000117   0.003449  -0.004153   0.001099
   60  O  4 YZ   -0.000164   0.000602   0.000858  -0.001476  -0.000621
   61  H  5  S    0.077080  -0.045785   0.170166   0.077581   0.087929
   62  H  5  S    0.003983  -0.009160   0.084624   0.050559   0.068337
   63  H  6  S    0.075513   0.106736  -0.120412  -0.179793   0.029565
   64  H  6  S    0.010313   0.036675  -0.064621  -0.123374   0.023295
   65  H  7  S    0.073014   0.131119  -0.038222   0.086403   0.189118
   66  H  7  S    0.015101   0.046898  -0.020094   0.062577   0.133953
   67  H  8  S    0.033298  -0.105082  -0.180854   0.149580  -0.022865
   68  H  8  S    0.004577  -0.030280  -0.095834   0.105401  -0.024072

                     11         12         13         14         15
                   -0.4148    -0.3935    -0.3888    -0.2871    -0.2536
                     A          A          A          A          A   
    1  C  1  S   -0.002753  -0.012298   0.006269  -0.001441  -0.039552
    2  C  1  S    0.009528   0.021615  -0.008682   0.001242   0.076717
    3  C  1  X    0.211943  -0.023034   0.096500   0.057633  -0.147038
    4  C  1  Y    0.029102  -0.177147   0.197513   0.141281   0.156208
    5  C  1  Z   -0.093822   0.173645   0.063001   0.327726  -0.043703
    6  C  1  S   -0.023824   0.051856  -0.042657   0.015430   0.333138
    7  C  1  X    0.033553   0.001409   0.021438   0.039374  -0.004832
    8  C  1  Y   -0.013366  -0.054381   0.080480   0.092475   0.121635
    9  C  1  Z   -0.024773   0.077398   0.053171   0.222473  -0.046397
   10  C  1 XX    0.009693  -0.003753   0.005242   0.004894  -0.003255
   11  C  1 YY   -0.013136   0.006788  -0.002405   0.000385  -0.000107
   12  C  1 ZZ   -0.000518   0.000143  -0.005427  -0.005920  -0.001822
   13  C  1 XY   -0.002324   0.019243  -0.011791   0.006459  -0.006536
   14  C  1 XZ   -0.000041  -0.009565   0.001422   0.014436   0.001485
   15  C  1 YZ    0.004642  -0.003485   0.010459  -0.000278  -0.000190
   16  C  2  S   -0.018233   0.005275  -0.010015  -0.000304   0.009556
   17  C  2  S    0.041906  -0.010483   0.020990   0.001454  -0.016355
   18  C  2  X   -0.227685   0.015983  -0.044019   0.069951   0.070459
   19  C  2  Y    0.039873   0.272192  -0.091311   0.148424  -0.019884
   20  C  2  Z    0.007744  -0.069447   0.140807   0.338570  -0.017692
   21  C  2  S    0.068318  -0.024234   0.046753  -0.000864  -0.120499
   22  C  2  X   -0.085421   0.009674  -0.018252   0.055697   0.096940
   23  C  2  Y    0.008048   0.105689  -0.029446   0.106241  -0.009660
   24  C  2  Z    0.002576  -0.019433   0.069601   0.248200  -0.029461
   25  C  2 XX    0.002963  -0.005071   0.001019  -0.004503   0.001394
   26  C  2 YY   -0.008736   0.001919  -0.002751   0.000081   0.000977
   27  C  2 ZZ   -0.001618   0.004644  -0.001471   0.004686   0.000030
   28  C  2 XY    0.003031   0.020545  -0.013516  -0.005756  -0.007317
   29  C  2 XZ   -0.000487  -0.011010  -0.000782  -0.012990   0.003502
   30  C  2 YZ    0.003318  -0.004539   0.004398   0.000918   0.001347
   31  C  3  S   -0.016855   0.019908  -0.012207   0.001031  -0.001164
   32  C  3  S    0.051875  -0.042277   0.028579  -0.000917   0.013988
   33  C  3  X   -0.308503  -0.134411   0.043488  -0.009562   0.022657
   34  C  3  Y   -0.089043   0.193405  -0.004124  -0.022868  -0.127726
   35  C  3  Z   -0.021837   0.135268   0.322152  -0.037634   0.040764
   36  C  3  S   -0.004135  -0.073357   0.031777  -0.015639  -0.000684
   37  C  3  X   -0.031227  -0.049131   0.036716   0.006558  -0.067210
   38  C  3  Y   -0.013799   0.082770   0.021780  -0.012277   0.040619
   39  C  3  Z   -0.030312   0.083050   0.177499  -0.027225  -0.007493
   40  C  3 XX    0.011796   0.001789   0.001492   0.004239   0.007716
   41  C  3 YY   -0.018335  -0.001506  -0.007804  -0.006295  -0.008590
   42  C  3 ZZ   -0.007979   0.002201   0.002603   0.001491  -0.000630
   43  C  3 XY   -0.002347  -0.003658  -0.005909   0.005868  -0.045638
   44  C  3 XZ    0.001677  -0.008641  -0.015531   0.023502   0.014187
   45  C  3 YZ    0.006973  -0.003604  -0.002279  -0.005859   0.005599
   46  O  4  S    0.062243   0.015013  -0.001064  -0.000703   0.000461
   47  O  4  S   -0.124182  -0.027307   0.000745   0.000434   0.006565
   48  O  4  X    0.433034   0.101461   0.032186   0.004882  -0.074323
   49  O  4  Y    0.012203   0.203004   0.037196  -0.077835   0.556737
   50  O  4  Z   -0.084664   0.157697   0.381367  -0.265868  -0.171917
   51  O  4  S   -0.273620  -0.082836   0.016524   0.011444  -0.042996
   52  O  4  X    0.232216   0.049361   0.024046   0.005873  -0.062108
   53  O  4  Y    0.006964   0.120660   0.025526  -0.055224   0.395205
   54  O  4  Z   -0.048514   0.098183   0.232732  -0.192361  -0.122080
   55  O  4 XX    0.029024   0.005981   0.003080  -0.000576  -0.001488
   56  O  4 YY    0.000061   0.003689  -0.001355  -0.002087   0.005066
   57  O  4 ZZ    0.000562  -0.000297  -0.003447   0.001217   0.003115
   58  O  4 XY    0.000118   0.013529   0.002584  -0.004027   0.017830
   59  O  4 XZ   -0.005814   0.010853   0.025463  -0.013018  -0.005417
   60  O  4 YZ   -0.000252  -0.000572   0.002191  -0.001555  -0.001518
   61  H  5  S   -0.099240   0.171187  -0.129167  -0.000412  -0.027311
   62  H  5  S   -0.111263   0.146237  -0.114012  -0.005810  -0.072033
   63  H  6  S   -0.031541   0.174687  -0.100607   0.001577  -0.014655
   64  H  6  S   -0.039388   0.164544  -0.101099   0.000058  -0.045078
   65  H  7  S   -0.086245  -0.160718   0.067221  -0.000585   0.042574
   66  H  7  S   -0.085451  -0.144530   0.057537  -0.002640   0.054570
   67  H  8  S   -0.110705   0.024224  -0.040257  -0.013138  -0.167313
   68  H  8  S   -0.123212   0.038795  -0.050674  -0.012168  -0.256927

                     16         17         18         19         20
                   -0.0620     0.0564     0.1107     0.1179     0.1527
                     A          A          A          A          A   
    1  C  1  S    0.000707   0.006063  -0.011629   0.068985   0.014408
    2  C  1  S    0.001596  -0.003410   0.003017  -0.109254  -0.020795
    3  C  1  X   -0.042838   0.081365  -0.042155   0.092276   0.120482
    4  C  1  Y   -0.077026   0.168682  -0.083937   0.151660  -0.155965
    5  C  1  Z   -0.191526   0.368401   0.077283  -0.113376   0.019852
    6  C  1  S   -0.021031  -0.154969   0.517667  -1.006556  -0.156337
    7  C  1  X   -0.038675   0.145385  -0.343875   0.249644   0.333325
    8  C  1  Y   -0.092900   0.236079  -0.088949   0.249611  -0.493429
    9  C  1  Z   -0.242480   0.586985   0.148638  -0.220014   0.076019
   10  C  1 XX    0.005674  -0.006368   0.005305  -0.007341  -0.011196
   11  C  1 YY   -0.005319  -0.007017  -0.007251   0.013247   0.016139
   12  C  1 ZZ    0.000977   0.015366  -0.000050   0.005787  -0.002318
   13  C  1 XY    0.009098  -0.002391  -0.004402   0.019765  -0.021043
   14  C  1 XZ    0.023657  -0.001973   0.001139  -0.006782   0.010444
   15  C  1 YZ   -0.012746  -0.016242   0.001318  -0.006331  -0.003181
   16  C  2  S    0.003263   0.011617  -0.113018  -0.018364   0.055907
   17  C  2  S   -0.009157  -0.026361   0.180759   0.025106  -0.083874
   18  C  2  X    0.074043  -0.042206   0.203088  -0.004943  -0.028335
   19  C  2  Y    0.140204  -0.087093  -0.031417   0.237990  -0.152568
   20  C  2  Z    0.332768  -0.208911  -0.035313  -0.083726   0.094116
   21  C  2  S   -0.025533  -0.113518   1.785059   0.232016  -0.884563
   22  C  2  X    0.068116  -0.147724   0.602280  -0.039661   0.023454
   23  C  2  Y    0.174058  -0.146579  -0.116991   0.603489  -0.463812
   24  C  2  Z    0.389198  -0.419656  -0.104641  -0.214892   0.236927
   25  C  2 XX    0.003794  -0.006527  -0.001362   0.000069   0.003222
   26  C  2 YY   -0.000875  -0.002451  -0.013175   0.001571   0.004888
   27  C  2 ZZ   -0.002888   0.010776  -0.003639  -0.004923   0.003992
   28  C  2 XY    0.003167  -0.012735   0.009468  -0.013324   0.019991
   29  C  2 XZ    0.010737  -0.020566  -0.006960   0.007351  -0.006915
   30  C  2 YZ   -0.002268  -0.002476   0.000880   0.000617  -0.006592
   31  C  3  S    0.000905  -0.002352  -0.039410  -0.039213  -0.108536
   32  C  3  S    0.000175  -0.001791   0.078495   0.046829   0.179742
   33  C  3  X   -0.013386  -0.006284   0.029783   0.080049   0.184301
   34  C  3  Y   -0.106915  -0.112873   0.099554   0.182513   0.145142
   35  C  3  Z   -0.324276  -0.383379  -0.083989  -0.029259  -0.029787
   36  C  3  S   -0.011252   0.081401   0.429862   0.698515   1.552890
   37  C  3  X   -0.020135   0.037386  -0.069130   0.259477   0.712699
   38  C  3  Y   -0.102342  -0.184703   0.426984   0.312866   0.319035
   39  C  3  Z   -0.298951  -0.531516  -0.203136  -0.041593  -0.111055
   40  C  3 XX   -0.002711   0.005532  -0.020308   0.013016  -0.014421
   41  C  3 YY    0.005126  -0.017946   0.009032  -0.013176  -0.012471
   42  C  3 ZZ   -0.001133   0.010794   0.005478  -0.007444   0.000975
   43  C  3 XY   -0.008500  -0.004094   0.003324   0.000745   0.004543
   44  C  3 XZ   -0.026951  -0.008016   0.000307  -0.001821  -0.000635
   45  C  3 YZ    0.004490  -0.017292  -0.004223   0.005403   0.007259
   46  O  4  S    0.000933  -0.003616   0.015112  -0.003538  -0.003995
   47  O  4  S   -0.003707   0.011879  -0.030481  -0.001224  -0.018132
   48  O  4  X    0.007527   0.028265  -0.068564   0.021577  -0.055498
   49  O  4  Y    0.117442   0.063073  -0.042845  -0.038558  -0.049431
   50  O  4  Z    0.331047   0.234626   0.045545  -0.013698   0.010989
   51  O  4  S   -0.004176   0.026484  -0.157865   0.070535   0.198229
   52  O  4  X    0.008283   0.028519  -0.092026   0.023490   0.006770
   53  O  4  Y    0.109089   0.089423  -0.105829  -0.097227  -0.079327
   54  O  4  Z    0.313617   0.293660   0.073252  -0.001793   0.015264
   55  O  4 XX   -0.000615   0.000430   0.002493  -0.006797   0.000964
   56  O  4 YY    0.000821  -0.002599   0.002948  -0.002904  -0.014987
   57  O  4 ZZ   -0.001518   0.004111   0.004862  -0.002332  -0.005884
   58  O  4 XY    0.000783  -0.000557  -0.002650   0.003420   0.004419
   59  O  4 XZ    0.001973  -0.004042  -0.000090  -0.000513  -0.000958
   60  O  4 YZ    0.001050  -0.003810   0.000265   0.000036   0.004451
   61  H  5  S    0.010675   0.016360  -0.009569   0.109302  -0.018444
   62  H  5  S    0.034326   0.110510  -0.486186   1.274434  -0.255498
   63  H  6  S   -0.004905  -0.001184  -0.034254  -0.049337   0.108323
   64  H  6  S    0.008505   0.057029  -1.065621  -0.958611   1.152849
   65  H  7  S    0.005281   0.012679  -0.089489   0.033157  -0.047552
   66  H  7  S    0.027363   0.129310  -1.386190   0.663997  -0.245475
   67  H  8  S    0.003427  -0.014498   0.016159  -0.050610  -0.087477
   68  H  8  S    0.019360  -0.077161  -0.644977  -0.938645  -1.541478

                     21         22         23         24         25
                    0.1937     0.2623     0.3121     0.3513     0.5088
                     A          A          A          A          A   
    1  C  1  S    0.094011   0.012138  -0.116575   0.026429   0.017114
    2  C  1  S   -0.148690   0.060752   0.140042  -0.088516   0.037771
    3  C  1  X    0.064601  -0.086856   0.180942   0.249066   0.003483
    4  C  1  Y    0.145745  -0.075997   0.220803  -0.190358  -0.219634
    5  C  1  Z   -0.077157   0.021771  -0.129679   0.029598  -0.382492
    6  C  1  S   -1.637132  -1.089426   3.410275   0.691436  -0.180213
    7  C  1  X    0.296016  -0.304431   1.353034   3.008565  -0.385350
    8  C  1  Y    0.895299  -1.110608   1.291789  -1.075977   0.153137
    9  C  1  Z   -0.413449   0.426829  -0.844387  -0.050018   0.219854
   10  C  1 XX    0.011973  -0.021892  -0.008642   0.000946   0.024152
   11  C  1 YY    0.002317   0.034944   0.003989   0.010500  -0.013899
   12  C  1 ZZ   -0.001699   0.005194  -0.001373  -0.008019   0.010928
   13  C  1 XY   -0.020956   0.009436   0.012359  -0.034070  -0.014701
   14  C  1 XZ    0.006090   0.001257  -0.003473   0.011726  -0.027682
   15  C  1 YZ    0.003106  -0.012553  -0.003187  -0.006178  -0.017350
   16  C  2  S   -0.051101  -0.016458   0.075571   0.025688  -0.003175
   17  C  2  S    0.077287  -0.046866  -0.034571   0.035280   0.097553
   18  C  2  X    0.044618   0.183796   0.077598   0.083977  -0.279410
   19  C  2  Y   -0.263953  -0.042510  -0.097316   0.165218  -0.239757
   20  C  2  Z    0.101338  -0.039715   0.012242  -0.095990  -0.523268
   21  C  2  S    0.642356   1.037491  -2.303148  -2.202447   0.195772
   22  C  2  X   -0.041516  -0.294400   2.366351   1.840961   0.128118
   23  C  2  Y   -1.136845   0.382937  -0.612654   0.784528   0.202206
   24  C  2  Z    0.486708  -0.056823  -0.180530  -0.716821   0.546385
   25  C  2 XX   -0.012003   0.001409   0.040897  -0.002437   0.017039
   26  C  2 YY    0.004216   0.009208  -0.031067  -0.010536   0.008755
   27  C  2 ZZ   -0.002898  -0.009205  -0.000875   0.010211  -0.012915
   28  C  2 XY   -0.003963  -0.016232  -0.016011   0.044036   0.017617
   29  C  2 XZ    0.003740   0.006162  -0.000800  -0.017200   0.020764
   30  C  2 YZ   -0.002292  -0.002172   0.024201  -0.000116   0.001780
   31  C  3  S   -0.006861   0.032089   0.073524  -0.067473  -0.007846
   32  C  3  S    0.032344   0.002815  -0.036382   0.070873   0.093744
   33  C  3  X    0.062748   0.176331   0.001078   0.097888  -0.000732
   34  C  3  Y   -0.204873  -0.059918   0.184413  -0.433268  -0.209638
   35  C  3  Z    0.064210   0.020482  -0.077562   0.108080  -0.628271
   36  C  3  S   -0.264606  -0.836174  -1.628441   2.036880  -0.327219
   37  C  3  X   -0.170640   2.334947  -0.507256  -0.390910   0.193914
   38  C  3  Y   -0.471662  -0.280387   0.557231  -1.740774   0.273645
   39  C  3  Z    0.179135  -0.009849  -0.057896   0.642587   0.630617
   40  C  3 XX    0.006591   0.016200   0.028841   0.009375  -0.016054
   41  C  3 YY   -0.011788  -0.008862  -0.000349  -0.020691   0.022964
   42  C  3 ZZ    0.002152  -0.018697  -0.012609   0.010467  -0.004249
   43  C  3 XY    0.001715   0.004858  -0.008363   0.011350   0.014827
   44  C  3 XZ   -0.000686  -0.004055   0.002300  -0.002055   0.000847
   45  C  3 YZ    0.004942  -0.001938   0.001401   0.016990   0.010870
   46  O  4  S    0.004176  -0.107590  -0.030404   0.032556  -0.004762
   47  O  4  S   -0.009573   0.104639   0.100770   0.041108  -0.022207
   48  O  4  X    0.007392   0.163543   0.137579  -0.044144  -0.034853
   49  O  4  Y    0.100535   0.068990  -0.090800   0.041018   0.031938
   50  O  4  Z   -0.040943  -0.028213   0.027828  -0.004351  -0.040721
   51  O  4  S   -0.089838   2.100486   0.208277  -0.986068   0.228791
   52  O  4  X   -0.029163   0.836323   0.253662  -0.424165   0.086346
   53  O  4  Y    0.137384   0.211775  -0.178091   0.249916  -0.010493
   54  O  4  Z   -0.049602  -0.102053   0.026667  -0.078137  -0.074878
   55  O  4 XX   -0.004181   0.000093   0.007805   0.020293   0.000874
   56  O  4 YY    0.000950  -0.064439   0.007430   0.025501  -0.014086
   57  O  4 ZZ    0.000147  -0.062980  -0.000282   0.046664  -0.008738
   58  O  4 XY   -0.003358   0.007591   0.005838  -0.009260  -0.017088
   59  O  4 XZ    0.001216  -0.004757  -0.005027   0.001503  -0.040758
   60  O  4 YZ   -0.001177   0.000848  -0.001325   0.010901  -0.005874
   61  H  5  S    0.017886   0.102074   0.030295  -0.031638   0.022062
   62  H  5  S    1.705288  -0.712444   0.881315   0.187540  -0.046317
   63  H  6  S   -0.010246  -0.051905  -0.123257   0.039353   0.015650
   64  H  6  S    0.859851  -0.554146   0.240324  -1.147177   0.024549
   65  H  7  S   -0.029864   0.038734  -0.023578  -0.193321   0.002143
   66  H  7  S   -1.492001  -0.140066  -0.855849   0.301925   0.026682
   67  H  8  S   -0.027494   0.065186   0.040143  -0.040702   0.055377
   68  H  8  S    0.603960  -0.068202   0.147424   1.164445  -0.074862

                     26         27         28         29         30
                    0.5172     0.5544     0.5851     0.6208     0.6378
                     A          A          A          A          A   
    1  C  1  S   -0.068028   0.000135  -0.004337   0.015216   0.003184
    2  C  1  S   -0.191370  -0.371096  -0.042786   0.363224   0.027791
    3  C  1  X   -0.361280   0.254102   0.033266   0.143550  -0.212809
    4  C  1  Y    0.173991  -0.465760   0.011811  -0.165370  -0.299404
    5  C  1  Z   -0.148138   0.076486   0.109609  -0.030423  -0.881243
    6  C  1  S    0.554001   0.142636  -0.014942  -0.071209  -0.062860
    7  C  1  X    1.302680   0.327878  -0.016250  -0.186304   0.295972
    8  C  1  Y   -0.113675   0.139625  -0.058776   0.595018   0.460603
    9  C  1  Z   -0.115765  -0.019056  -0.218179  -0.141946   1.445287
   10  C  1 XX   -0.129441  -0.070030   0.002614  -0.010967   0.014830
   11  C  1 YY   -0.012152  -0.035135  -0.008038   0.125196  -0.024962
   12  C  1 ZZ    0.041960   0.011861  -0.010519  -0.015466   0.018148
   13  C  1 XY    0.004464   0.052458   0.023879  -0.009704  -0.003372
   14  C  1 XZ    0.027921  -0.010229   0.045863  -0.004285   0.000504
   15  C  1 YZ    0.026295   0.012710   0.000536  -0.080633  -0.019949
   16  C  2  S    0.009922   0.004992   0.000938   0.036546  -0.005391
   17  C  2  S   -0.352952  -0.239623  -0.019940   0.370672  -0.005003
   18  C  2  X    0.567099   0.085481   0.146764   0.199287   0.032355
   19  C  2  Y   -0.011848  -0.284409   0.279247  -0.096732   0.189289
   20  C  2  Z   -0.289020   0.079397   0.654854   0.049170   0.409079
   21  C  2  S   -0.628251   0.121307  -0.005561  -0.851057   0.087541
   22  C  2  X   -0.402698   0.346067  -0.172186  -0.605707  -0.061627
   23  C  2  Y   -0.087047   0.751036  -0.308992   0.187337  -0.352143
   24  C  2  Z    0.293594  -0.385454  -0.684939  -0.025583  -0.814602
   25  C  2 XX   -0.038226   0.014575  -0.008018   0.065715   0.002414
   26  C  2 YY   -0.000351  -0.036347   0.008684   0.079103  -0.014812
   27  C  2 ZZ   -0.005885  -0.012806  -0.000915  -0.032460   0.003899
   28  C  2 XY    0.004857  -0.047353  -0.004672  -0.034163   0.005304
   29  C  2 XZ    0.016825   0.022902  -0.026286  -0.010351   0.028494
   30  C  2 YZ    0.000550   0.028556   0.012221  -0.059135  -0.005248
   31  C  3  S    0.024058  -0.049944   0.001005  -0.003724  -0.001287
   32  C  3  S   -0.326519  -0.446930  -0.064298   0.033851   0.053917
   33  C  3  X   -0.168655  -0.267512  -0.040478   0.276994  -0.076096
   34  C  3  Y    0.088940   0.164807  -0.177978  -0.391848   0.052330
   35  C  3  Z   -0.171541  -0.000913  -0.702358   0.088053   0.224699
   36  C  3  S    1.098774   1.274910   0.048467  -0.089519   0.065286
   37  C  3  X   -0.611042   0.201378   0.109984  -0.652798   0.026323
   38  C  3  Y   -0.089397  -0.694869   0.204086   1.072371  -0.236268
   39  C  3  Z    0.278126   0.168151   0.989842  -0.266418  -0.640531
   40  C  3 XX    0.037007  -0.033993  -0.002969   0.058819  -0.020733
   41  C  3 YY   -0.026608  -0.126945   0.001056  -0.059563   0.018668
   42  C  3 ZZ   -0.021851   0.026289  -0.011920   0.001035   0.007880
   43  C  3 XY   -0.048271   0.028881   0.006490  -0.010769  -0.012017
   44  C  3 XZ    0.013216  -0.010105   0.005599  -0.004106  -0.022572
   45  C  3 YZ    0.021264   0.063945   0.022102   0.032529  -0.011997
   46  O  4  S    0.020784   0.025769  -0.001585   0.001316   0.002976
   47  O  4  S    0.046104  -0.131878   0.007668   0.007357   0.036559
   48  O  4  X    0.089529  -0.023094   0.003516   0.113742  -0.036631
   49  O  4  Y   -0.170873   0.047535  -0.011558  -0.209848  -0.041906
   50  O  4  Z    0.042906  -0.017187  -0.100921   0.042210  -0.014981
   51  O  4  S   -0.790930  -0.247032   0.019314  -0.269874  -0.070351
   52  O  4  X   -0.327684  -0.287990   0.005942  -0.065966  -0.014527
   53  O  4  Y   -0.066016   0.102129  -0.012385  -0.088198   0.051380
   54  O  4  Z   -0.001490  -0.016285  -0.089114   0.033271   0.124951
   55  O  4 XX   -0.011031  -0.026079  -0.003301  -0.041397   0.035237
   56  O  4 YY    0.032185  -0.027857   0.002224   0.004307  -0.004352
   57  O  4 ZZ    0.042460  -0.000764   0.005476   0.016885   0.018380
   58  O  4 XY    0.020035   0.011547  -0.013215  -0.015217   0.012003
   59  O  4 XZ   -0.013827   0.001082  -0.045935   0.007204   0.021323
   60  O  4 YZ    0.004529   0.010612   0.001960   0.005849  -0.018601
   61  H  5  S   -0.183702   0.129287  -0.032106   0.434923   0.000005
   62  H  5  S    0.177991  -0.088385   0.000932   0.062144  -0.021342
   63  H  6  S    0.074160  -0.372710   0.011590   0.230399  -0.036570
   64  H  6  S    0.163807  -0.384882   0.012249   0.148851  -0.018396
   65  H  7  S   -0.026004   0.137604  -0.000082   0.444982  -0.039010
   66  H  7  S   -0.061305   0.078029   0.008738   0.243115  -0.044760
   67  H  8  S   -0.226000  -0.333324  -0.001586  -0.321793   0.033745
   68  H  8  S    0.140432   0.198109   0.034407  -0.232085  -0.023233

                     31         32         33         34         35
                    0.6620     0.6736     0.8103     0.8292     0.8558
                     A          A          A          A          A   
    1  C  1  S    0.051991  -0.017810  -0.025631   0.011396   0.003812
    2  C  1  S   -0.144040   0.387564  -0.531801   0.222117  -0.018187
    3  C  1  X   -0.548737   0.130715   0.421899  -0.131956   0.006344
    4  C  1  Y    0.105058   0.232614   0.049831   0.280502   0.118960
    5  C  1  Z    0.159968  -0.037923  -0.078832  -0.091027  -0.041813
    6  C  1  S    0.473066  -0.848855   1.486954  -0.725897   0.165659
    7  C  1  X    0.449717   0.518003  -2.452217   0.571066   0.031627
    8  C  1  Y    0.117961  -0.703076   0.116802  -1.615127  -0.504145
    9  C  1  Z   -0.342115   0.063695   0.284315   0.575727   0.200740
   10  C  1 XX    0.089973   0.012546  -0.047560   0.036656   0.020649
   11  C  1 YY    0.020729  -0.006998  -0.051779  -0.008478  -0.010007
   12  C  1 ZZ   -0.040339   0.025566  -0.005085  -0.004126  -0.009086
   13  C  1 XY    0.006490   0.020991  -0.047679  -0.048836  -0.044803
   14  C  1 XZ   -0.033846  -0.000172   0.036215   0.011775   0.012143
   15  C  1 YZ   -0.037322   0.007673   0.043094   0.012624   0.016833
   16  C  2  S   -0.068537   0.045887   0.018455  -0.002016  -0.001944
   17  C  2  S   -0.175141   0.262910  -0.464737  -0.012772   0.242737
   18  C  2  X   -0.389564   0.167844   0.061893  -0.003061   0.027976
   19  C  2  Y   -0.035974   0.001319  -0.049850  -0.928725  -0.375202
   20  C  2  Z    0.073993  -0.050367  -0.003433   0.396945   0.158427
   21  C  2  S    0.480237  -0.903394   1.907361   0.037736  -0.409261
   22  C  2  X    0.558124   0.051689  -0.595734  -0.068875   0.008274
   23  C  2  Y    0.041060   0.179872  -0.113104   2.528317   0.937198
   24  C  2  Z   -0.063197  -0.036888   0.220540  -1.067032  -0.407949
   25  C  2 XX   -0.133563   0.076282   0.015524  -0.022205   0.009386
   26  C  2 YY   -0.034885   0.049975  -0.027709   0.005295   0.010807
   27  C  2 ZZ    0.041622  -0.030108  -0.030174   0.005137   0.020030
   28  C  2 XY   -0.031841  -0.049624   0.011090   0.078299   0.066433
   29  C  2 XZ    0.057773  -0.011295  -0.012343  -0.029176  -0.029123
   30  C  2 YZ    0.066431  -0.035771  -0.003440  -0.023326  -0.010042
   31  C  3  S   -0.021005  -0.052065  -0.000589   0.032848  -0.044809
   32  C  3  S    0.294249   0.445455  -0.451354  -0.225365   0.098679
   33  C  3  X   -0.222003  -0.888635  -0.166011  -0.178264   0.232532
   34  C  3  Y   -0.337418   0.043077  -0.699392  -0.079297   0.316295
   35  C  3  Z    0.042754   0.010797   0.229068   0.023481  -0.104549
   36  C  3  S   -0.093640   0.556481  -0.463456   1.893555  -0.716261
   37  C  3  X    0.062204   0.960535   0.888010   0.236820   0.056807
   38  C  3  Y    0.984318  -0.619043   2.844319  -0.346117  -0.420767
   39  C  3  Z   -0.146341   0.210477  -0.980444   0.108546   0.118432
   40  C  3 XX   -0.048813  -0.111767  -0.164942   0.110365  -0.156072
   41  C  3 YY    0.045107   0.080453   0.016108   0.014053  -0.012891
   42  C  3 ZZ    0.020381   0.049087  -0.006481  -0.067308   0.084354
   43  C  3 XY   -0.027085  -0.048182   0.055817  -0.006206  -0.100626
   44  C  3 XZ    0.013908   0.022752  -0.008921  -0.012897   0.044152
   45  C  3 YZ   -0.006807  -0.004598  -0.016716  -0.034179   0.040783
   46  O  4  S    0.011064   0.042226  -0.014092   0.006986  -0.004617
   47  O  4  S    0.000083  -0.127605   0.148380  -0.160286   0.383734
   48  O  4  X   -0.134143  -0.354743  -0.281155   0.257704  -0.510309
   49  O  4  Y   -0.227035  -0.015188  -0.041316   0.017680  -0.098923
   50  O  4  Z    0.064545   0.019720   0.038830  -0.041247   0.065536
   51  O  4  S    0.009726   0.104525   0.577538  -0.105593  -0.328071
   52  O  4  X   -0.017286  -0.296991   0.660967  -0.573104   0.913903
   53  O  4  Y   -0.085868   0.050474  -0.241417  -0.022802   0.108877
   54  O  4  Z    0.010332  -0.015583   0.045005   0.049702  -0.083352
   55  O  4 XX    0.079409   0.153070   0.136276  -0.108337   0.191041
   56  O  4 YY   -0.010788  -0.050646   0.055002  -0.055058   0.142139
   57  O  4 ZZ   -0.012832  -0.048258   0.016787  -0.045759   0.132144
   58  O  4 XY    0.005047   0.036995  -0.074837  -0.004558   0.055682
   59  O  4 XZ   -0.012048  -0.022192   0.018168   0.005773  -0.020083
   60  O  4 YZ    0.003335   0.001913  -0.014546   0.003357  -0.007767
   61  H  5  S    0.339262   0.057457  -0.170867  -0.019212  -0.085044
   62  H  5  S    0.049911   0.012540  -0.608660  -0.446860  -0.177075
   63  H  6  S   -0.442714   0.145486   0.143543   0.364678   0.205604
   64  H  6  S    0.034204  -0.021301  -0.086168  -1.816227  -0.748089
   65  H  7  S   -0.232291   0.306205   0.024890  -0.343012  -0.292710
   66  H  7  S   -0.210241  -0.053343  -0.146364   1.633007   0.881430
   67  H  8  S   -0.163157   0.045821   0.331460   0.221081  -0.594926
   68  H  8  S   -0.447683   0.145924  -2.190337  -0.391500   0.974660

                     36         37         38         39         40
                    0.8762     0.9060     0.9493     0.9850     1.0594
                     A          A          A          A          A   
    1  C  1  S   -0.036108   0.010816   0.015069   0.004347  -0.029436
    2  C  1  S    0.530778  -0.105663   0.414490   0.121134  -0.804795
    3  C  1  X   -0.324125  -0.475278  -0.242282  -0.013034   0.000976
    4  C  1  Y   -0.818618   0.053100   0.040150   0.055703   0.014338
    5  C  1  Z    0.398808   0.068318   0.043127   0.021026   0.019077
    6  C  1  S   -0.302929   0.240788  -1.081371  -0.462374   2.353118
    7  C  1  X    0.595721   2.495731   1.663075   0.360745   0.788203
    8  C  1  Y    2.562135  -0.683884  -0.698424  -0.305492  -0.110348
    9  C  1  Z   -1.181837  -0.166705  -0.037239   0.158893  -0.108230
   10  C  1 XX    0.083690   0.064825   0.077301  -0.001036  -0.021812
   11  C  1 YY   -0.031619  -0.060768  -0.043759  -0.013249  -0.110176
   12  C  1 ZZ    0.046257  -0.004063   0.009249   0.034758   0.017026
   13  C  1 XY   -0.104545   0.048609   0.047572  -0.005749   0.008070
   14  C  1 XZ    0.046066  -0.036721  -0.041169  -0.013570   0.001886
   15  C  1 YZ    0.073207   0.016592   0.002131  -0.040727   0.063966
   16  C  2  S    0.006518   0.030441  -0.002275   0.001563   0.015967
   17  C  2  S   -0.001723  -0.174460   1.280155  -0.203787   0.592916
   18  C  2  X    0.035633  -0.704284   0.187347  -0.028550  -0.046498
   19  C  2  Y   -0.051054   0.069066   0.047490  -0.027052  -0.085823
   20  C  2  Z    0.015554   0.110933  -0.077334  -0.050800   0.040239
   21  C  2  S   -0.596041  -0.920903  -3.385445   0.318896  -2.328239
   22  C  2  X    0.230880   1.974168   0.165043   0.094667   0.669688
   23  C  2  Y   -0.511010   0.066672   0.073036   0.253602   0.449243
   24  C  2  Z    0.166429  -0.423159  -0.023879  -0.046966  -0.306578
   25  C  2 XX   -0.041903  -0.103552   0.094133  -0.005224   0.006119
   26  C  2 YY    0.012627   0.129823   0.027919  -0.020402   0.048699
   27  C  2 ZZ    0.015693  -0.061415   0.054908  -0.004409   0.028408
   28  C  2 XY    0.066351  -0.047910  -0.032945  -0.022576  -0.021293
   29  C  2 XZ   -0.018340   0.020295   0.011239   0.016194   0.017327
   30  C  2 YZ   -0.016490  -0.104927   0.019614  -0.023115  -0.010074
   31  C  3  S    0.013979  -0.017534  -0.017326  -0.005072   0.011304
   32  C  3  S    0.309661  -0.822343  -1.177929  -0.090738   0.385587
   33  C  3  X   -0.035632  -0.063784  -0.131660   0.049132   0.066158
   34  C  3  Y   -0.115186   0.148832  -0.062372   0.053625   0.200943
   35  C  3  Z    0.055815  -0.034890   0.021366   0.085294  -0.055068
   36  C  3  S   -1.612614   2.620595   3.429947   0.517585  -1.074761
   37  C  3  X   -0.670571   0.262318   0.480913  -0.115805  -0.321062
   38  C  3  Y    0.661549  -1.354288  -0.715515  -0.559067  -1.116185
   39  C  3  Z   -0.156453   0.467652   0.237007  -0.392627   0.334454
   40  C  3 XX   -0.045767  -0.065316  -0.107820  -0.016278  -0.005451
   41  C  3 YY    0.059038  -0.046268  -0.018935   0.003466   0.042779
   42  C  3 ZZ    0.006432  -0.003177  -0.021970   0.007386   0.012371
   43  C  3 XY    0.035714  -0.002339   0.028574  -0.003933   0.148504
   44  C  3 XZ   -0.002654   0.009138  -0.002995   0.020896  -0.036114
   45  C  3 YZ   -0.027309   0.025463  -0.001964  -0.020886  -0.018091
   46  O  4  S   -0.000531   0.002507   0.002419   0.003097   0.000093
   47  O  4  S    0.068097   0.204078   0.172090   0.040140   0.015596
   48  O  4  X   -0.041232   0.002093  -0.057888  -0.101677   0.123680
   49  O  4  Y   -0.041572   0.008332  -0.009125  -0.246993  -0.694224
   50  O  4  Z   -0.008721   0.085903  -0.008245  -0.889217   0.147387
   51  O  4  S   -0.078823  -0.740612  -0.701671  -0.236394  -0.022577
   52  O  4  X    0.101761  -0.060081   0.030426   0.108924  -0.181257
   53  O  4  Y   -0.081188   0.140364   0.120000   0.386868   1.170320
   54  O  4  Z    0.043641  -0.147593  -0.027387   1.164477  -0.265409
   55  O  4 XX    0.057568   0.030086   0.016269   0.003244   0.034346
   56  O  4 YY    0.015891   0.045775   0.039226   0.011027  -0.011170
   57  O  4 ZZ   -0.009535   0.114386   0.121603   0.039096  -0.023211
   58  O  4 XY    0.006574   0.018451  -0.010302  -0.007792  -0.093843
   59  O  4 XZ   -0.005130  -0.002305   0.006792  -0.026442   0.019960
   60  O  4 YZ   -0.010970   0.033187   0.037632  -0.000413   0.003574
   61  H  5  S   -0.678806  -0.026847   0.001895   0.028631  -0.164806
   62  H  5  S    2.556304   0.350480   0.297332  -0.050763  -0.157362
   63  H  6  S    0.104108   0.518027  -0.390657  -0.018495  -0.000394
   64  H  6  S    0.064729  -1.047681   1.029618  -0.227842  -0.010803
   65  H  7  S   -0.003648   0.599710  -0.246831   0.113591   0.131367
   66  H  7  S   -0.081351  -1.179493   0.782778  -0.125618   0.370311
   67  H  8  S    0.100220  -0.002710   0.294801   0.068581   0.149906
   68  H  8  S   -0.161587   0.286308  -0.802689   0.113618   0.787160

                     41         42         43         44         45
                    1.0786     1.1478     1.2531     1.3563     1.4352
                     A          A          A          A          A   
    1  C  1  S   -0.001531  -0.045600  -0.028065   0.014241  -0.004754
    2  C  1  S    0.110126  -1.289945  -0.732077   0.308226  -0.095934
    3  C  1  X   -0.129569  -0.209727  -0.110227   0.072607  -0.046466
    4  C  1  Y    0.064979   0.007663  -0.311168   0.114433  -0.069324
    5  C  1  Z   -0.022254   0.017659   0.132718  -0.080905  -0.130653
    6  C  1  S   -0.031141   5.809766   2.963811  -1.415010   0.455239
    7  C  1  X    2.355007   1.029816   1.459351  -1.195247   0.047804
    8  C  1  Y   -0.864416  -0.026797   3.538191  -1.493217   0.244634
    9  C  1  Z    0.043965  -0.170140  -1.645398   0.826973  -0.030594
   10  C  1 XX    0.002739  -0.009095  -0.034594   0.157781   0.121418
   11  C  1 YY    0.011141  -0.085808  -0.070008  -0.189372   0.262198
   12  C  1 ZZ    0.022756  -0.022769   0.083255   0.023802  -0.384733
   13  C  1 XY   -0.003081  -0.044362   0.126058   0.077634   0.181312
   14  C  1 XZ    0.053401   0.028378   0.133316   0.387125   0.252034
   15  C  1 YZ   -0.055823   0.057283  -0.119028  -0.240038   0.280590
   16  C  2  S    0.005433   0.026464   0.012650  -0.009361   0.004780
   17  C  2  S   -0.341545   1.044898   0.237672  -0.068818   0.061028
   18  C  2  X    0.242263  -0.083785   0.118260  -0.120891  -0.013482
   19  C  2  Y   -0.276280  -0.098418  -0.056246   0.012125  -0.014688
   20  C  2  Z    0.068196   0.060051  -0.046530  -0.105851  -0.085170
   21  C  2  S   -1.118457  -4.205408  -2.738248   1.609852  -0.291051
   22  C  2  X    0.157942   1.231217   0.817057  -0.482590   0.193801
   23  C  2  Y    1.878825   0.857454  -1.874094   0.568883  -0.241791
   24  C  2  Z   -0.898670  -0.612823   0.608856  -0.127435   0.054506
   25  C  2 XX   -0.045687  -0.032363  -0.126534  -0.046880  -0.117347
   26  C  2 YY   -0.007950   0.110382  -0.001228  -0.097363   0.158519
   27  C  2 ZZ    0.003826   0.036631   0.156069   0.133453  -0.038158
   28  C  2 XY   -0.139123  -0.063051   0.037181  -0.157440  -0.105616
   29  C  2 XZ    0.039962   0.039083  -0.088624  -0.285637  -0.366671
   30  C  2 YZ    0.031624  -0.021387  -0.036410  -0.070281   0.172966
   31  C  3  S   -0.002243   0.024667   0.025685  -0.011675  -0.007478
   32  C  3  S    0.229695   0.532882   0.273837  -0.181322  -0.045339
   33  C  3  X    0.331921   0.101050  -0.116896   0.022793  -0.000490
   34  C  3  Y    0.054004  -0.190725   0.117563  -0.046355   0.035698
   35  C  3  Z   -0.073945   0.069299   0.016209   0.030638   0.102344
   36  C  3  S    0.487594  -1.391361  -2.144295   0.910767  -0.833501
   37  C  3  X   -1.357618  -0.752583  -2.166092   1.268374   0.510583
   38  C  3  Y   -1.650522   1.511128  -0.161393   0.429371   0.151015
   39  C  3  Z    0.807321  -0.477457   0.213475  -0.183736  -0.252434
   40  C  3 XX   -0.072261   0.046224   0.004030  -0.024751  -0.010864
   41  C  3 YY    0.186624   0.002390   0.073415   0.220790   0.055092
   42  C  3 ZZ   -0.047009  -0.014315  -0.065470  -0.212036  -0.054959
   43  C  3 XY    0.006536  -0.034381   0.071623  -0.086112   0.114182
   44  C  3 XZ   -0.045257   0.028115  -0.094845  -0.224688   0.354605
   45  C  3 YZ   -0.029929   0.007679   0.203920   0.308262  -0.018511
   46  O  4  S    0.009874   0.002049   0.033793  -0.018738  -0.027083
   47  O  4  S   -0.075189   0.139560   0.334612  -0.107444  -0.463115
   48  O  4  X   -0.302401   0.079113  -0.103205   0.098138  -0.088151
   49  O  4  Y    0.108256   0.402155   0.113501  -0.074553  -0.004863
   50  O  4  Z    0.120098  -0.185389  -0.064092  -0.020659   0.021069
   51  O  4  S   -0.684552  -0.224518  -1.546815   0.815883   1.436782
   52  O  4  X    0.352537  -0.087698  -0.208604   0.053865   0.494616
   53  O  4  Y    0.087578  -0.900518  -0.171467   0.040646   0.074138
   54  O  4  Z   -0.295015   0.379253   0.060961  -0.067163   0.141007
   55  O  4 XX   -0.051129   0.055600   0.148452  -0.035770  -0.171122
   56  O  4 YY    0.007908   0.051849   0.106375   0.067504  -0.096966
   57  O  4 ZZ    0.051435  -0.022386   0.084375  -0.167101  -0.089411
   58  O  4 XY   -0.019781   0.064973   0.003596   0.040960  -0.083076
   59  O  4 XZ    0.033699  -0.038036   0.022057   0.100942  -0.231792
   60  O  4 YZ    0.039657  -0.023219   0.085907   0.083376  -0.037717
   61  H  5  S    0.088455  -0.320178   0.725845  -0.347529   0.041874
   62  H  5  S    0.093638  -0.489579   1.270272  -0.659313   0.041968
   63  H  6  S   -0.362997  -0.138277   0.549635  -0.207198   0.054247
   64  H  6  S   -0.671995   0.093399   0.820577  -0.267802   0.051593
   65  H  7  S    0.479510   0.307047  -0.394485   0.099997  -0.046416
   66  H  7  S    0.584168   0.628731  -0.288437   0.047033  -0.096455
   67  H  8  S    0.585369  -0.112527   0.434532  -0.308812  -0.011276
   68  H  8  S    0.729077  -0.322044   0.608648  -0.466073  -0.086161

                     46         47         48         49         50
                    1.5331     1.5456     1.6566     1.7664     1.7919
                     A          A          A          A          A   
    1  C  1  S   -0.022309   0.003363   0.002652  -0.000519  -0.018784
    2  C  1  S   -0.550427   0.039237   0.051543   0.158937   0.229394
    3  C  1  X   -0.055826   0.031428   0.017000  -0.043628  -0.237884
    4  C  1  Y   -0.093612   0.026616   0.021868   0.153630   0.124298
    5  C  1  Z    0.076408   0.026918   0.022428  -0.056473  -0.007288
    6  C  1  S    2.219785  -0.227694  -0.241481   0.130258   0.406463
    7  C  1  X   -0.215163  -0.321973  -0.130896  -1.429686   0.378401
    8  C  1  Y    0.878062  -0.167906  -0.021674  -0.183944  -0.084307
    9  C  1  Z   -0.400212   0.209337   0.256517   0.289508  -0.024099
   10  C  1 XX    0.045425  -0.032476  -0.051520  -0.020691   0.080745
   11  C  1 YY   -0.019023  -0.148867   0.002042  -0.185534  -0.128087
   12  C  1 ZZ   -0.040765   0.172239   0.047192   0.275775   0.036871
   13  C  1 XY   -0.079622  -0.126914  -0.056825   0.169181   0.313010
   14  C  1 XZ   -0.069477  -0.096041  -0.104598   0.017197  -0.154224
   15  C  1 YZ   -0.106375  -0.155310  -0.004178   0.238291   0.012117
   16  C  2  S    0.013332  -0.000992  -0.002012   0.007355   0.002093
   17  C  2  S    0.318519  -0.017203  -0.016736   0.059144  -0.032801
   18  C  2  X   -0.055004  -0.007284  -0.010791  -0.083431   0.081812
   19  C  2  Y    0.125789   0.045074   0.020427  -0.015281  -0.105883
   20  C  2  Z   -0.008339   0.058573   0.032662   0.029084   0.039294
   21  C  2  S   -1.044794   0.363969   0.239495   0.838589  -0.311175
   22  C  2  X    0.817495  -0.095053  -0.112837  -0.424276   0.143628
   23  C  2  Y   -1.057854  -0.014086  -0.000642  -0.183447  -0.137261
   24  C  2  Z    0.272721  -0.062008  -0.076501   0.165598   0.008831
   25  C  2 XX    0.037662   0.093146   0.029968   0.020634   0.128111
   26  C  2 YY    0.076070  -0.173958   0.519801  -0.167946  -0.070211
   27  C  2 ZZ   -0.115006   0.083290  -0.546672   0.163260  -0.101244
   28  C  2 XY    0.074106   0.064372   0.194921  -0.028113  -0.202665
   29  C  2 XZ    0.022237   0.246382   0.034268   0.061107   0.091127
   30  C  2 YZ   -0.126676  -0.230677   0.558854   0.154278   0.038729
   31  C  3  S   -0.016219  -0.004513   0.000797   0.013902  -0.017436
   32  C  3  S   -0.087746  -0.045841  -0.015543   0.394028   0.153886
   33  C  3  X   -0.050037   0.010548  -0.000593   0.143531   0.110065
   34  C  3  Y   -0.027417   0.035268   0.013390  -0.246984   0.033450
   35  C  3  Z   -0.027345   0.147854   0.030598   0.067024  -0.014858
   36  C  3  S   -3.377079  -0.333793   0.146056  -2.376236  -0.052384
   37  C  3  X    1.989800   0.576603  -0.016893   1.310745   0.062169
   38  C  3  Y    1.015553   0.142557  -0.076556   1.340214   0.736176
   39  C  3  Z   -0.395323  -0.182812  -0.176793  -0.539626  -0.237290
   40  C  3 XX   -0.141203  -0.008158  -0.006231  -0.119451  -0.058406
   41  C  3 YY    0.130029   0.260797   0.158528  -0.197164   0.121556
   42  C  3 ZZ   -0.029865  -0.261184  -0.150679   0.378442  -0.034001
   43  C  3 XY   -0.134877   0.104966  -0.023608   0.071353   0.439765
   44  C  3 XZ   -0.141997   0.391058  -0.105105  -0.026420  -0.143290
   45  C  3 YZ   -0.138545   0.331414   0.276518   0.271275  -0.085861
   46  O  4  S   -0.090843  -0.017743   0.002470  -0.044463  -0.005540
   47  O  4  S   -1.574923  -0.281188   0.051080  -0.774703  -0.120262
   48  O  4  X   -0.249507  -0.017369   0.011176  -0.041312  -0.057902
   49  O  4  Y   -0.049104   0.012123  -0.015304   0.030357   0.233361
   50  O  4  Z   -0.025021   0.098634  -0.037670  -0.022032  -0.072638
   51  O  4  S    5.109859   0.990329  -0.142173   2.899355   0.346709
   52  O  4  X    1.685310   0.296497  -0.052298   0.892483   0.162674
   53  O  4  Y    0.020052   0.046165   0.031678  -0.133208  -0.394149
   54  O  4  Z   -0.076634   0.040898   0.071449   0.031788   0.119850
   55  O  4 XX   -0.526759  -0.127907   0.018359  -0.259043   0.064189
   56  O  4 YY   -0.154869   0.083032   0.171306  -0.476887   0.116478
   57  O  4 ZZ   -0.452272  -0.157794  -0.155864   0.270482  -0.258336
   58  O  4 XY    0.081037  -0.107005   0.008131   0.086541  -0.484012
   59  O  4 XZ    0.126978  -0.400468  -0.000895   0.027006   0.134043
   60  O  4 YZ   -0.119929   0.131663   0.275187   0.389622  -0.105226
   61  H  5  S    0.017700  -0.026796  -0.022879  -0.125685  -0.142328
   62  H  5  S    0.071327  -0.122538  -0.047072  -0.292319   0.091831
   63  H  6  S    0.173472  -0.029076  -0.019192   0.209669   0.259371
   64  H  6  S    0.270534  -0.045241  -0.009403   0.047786  -0.064193
   65  H  7  S   -0.187065  -0.002625   0.007894   0.006948  -0.190974
   66  H  7  S   -0.467804  -0.025826   0.004859  -0.011692  -0.027767
   67  H  8  S   -0.061015  -0.049306   0.003902   0.004649  -0.562334
   68  H  8  S   -0.351122  -0.125324  -0.016834  -0.463564  -0.122302

                     51         52         53         54         55
                    1.8430     1.9147     1.9872     2.0338     2.1302
                     A          A          A          A          A   
    1  C  1  S   -0.001933   0.026505  -0.031832  -0.001115   0.000861
    2  C  1  S   -0.011513   0.190763  -0.461424  -0.287008  -0.139640
    3  C  1  X   -0.006145   0.011908  -0.075983  -0.097079  -0.061982
    4  C  1  Y   -0.037294   0.113208   0.033829  -0.191366  -0.039739
    5  C  1  Z   -0.048624  -0.053900   0.009307   0.087050   0.104278
    6  C  1  S   -0.003707  -0.832009   1.505706  -0.365396  -0.122979
    7  C  1  X    0.138196   0.922880   0.002159   0.850950   0.495938
    8  C  1  Y    0.051039  -0.167400   1.001831  -0.072445  -0.173267
    9  C  1  Z    0.123240  -0.099791  -0.448304  -0.202123   0.361944
   10  C  1 XX   -0.022943   0.100735   0.406335   0.358007   0.112349
   11  C  1 YY    0.321597  -0.360196  -0.245856  -0.411951   0.296194
   12  C  1 ZZ   -0.306959   0.249261  -0.240390  -0.071718  -0.466139
   13  C  1 XY    0.028008  -0.245608  -0.275501   0.240073   0.200236
   14  C  1 XZ   -0.118956   0.171029  -0.006433  -0.249315   0.006779
   15  C  1 YZ    0.273796   0.447042   0.004271  -0.071163   0.291698
   16  C  2  S   -0.002186   0.025042  -0.016646  -0.013571   0.009055
   17  C  2  S   -0.022953   0.080394  -0.219203  -0.310789   0.058028
   18  C  2  X    0.015585  -0.008962   0.236595   0.234007  -0.022575
   19  C  2  Y   -0.000679   0.103783   0.112618  -0.095199  -0.014630
   20  C  2  Z    0.008384  -0.041306  -0.093998  -0.004707  -0.008703
   21  C  2  S   -0.023003  -0.829063  -0.132210  -0.084915  -0.443520
   22  C  2  X    0.010440   0.039228   0.020670  -0.211858  -0.079355
   23  C  2  Y    0.044182   0.225669  -0.356360  -0.069977   0.046491
   24  C  2  Z   -0.072310  -0.102535   0.143412   0.119843  -0.205648
   25  C  2 XX    0.003193  -0.039278   0.172440   0.409774   0.305971
   26  C  2 YY   -0.179631  -0.292451  -0.024390  -0.322127  -0.431762
   27  C  2 ZZ    0.172582   0.351551  -0.282837  -0.229738   0.089643
   28  C  2 XY   -0.053079   0.326879   0.253526  -0.338006   0.167432
[...]

          ATOMIC WEIGHTS (AMU)

    1     C                12.00000
    2     C                12.00000
    3     C                12.00000
    4     O                15.99491
    5     H                 1.00782
    6     H                 1.00782
    7     H                 1.00782
    8     H                 1.00782

 MODES    1 TO    6 ARE TAKEN AS ROTATIONS AND TRANSLATIONS.

 ANALYZING SYMMETRY OF NORMAL MODES...

     FREQUENCIES IN CM**-1, IR INTENSITIES IN DEBYE**2/AMU-ANGSTROM**2,
     REDUCED MASSES IN AMU.

                            1           2           3           4           5
       FREQUENCY:         8.67        7.91        0.17        0.06        0.05  
        SYMMETRY:         A           A           A           A           A   
    REDUCED MASS:      4.74257     4.70592     7.03336     6.97247     6.99949
    IR INTENSITY:      0.11345     0.08370     0.00002     0.00000     0.00000

  1   C            X -0.01222120 -0.05531747 -0.05634955  0.00848642  0.12092528
                   Y -0.01233264 -0.03370003  0.00629753  0.13402098 -0.00552844
                   Z -0.01243280  0.02651174  0.12046043 -0.00200109  0.05764261
  2   C            X -0.03310187 -0.03760832 -0.05645858  0.00828145  0.12084790
                   Y -0.09038318 -0.13525350  0.00645257  0.13422189 -0.00580624
                   Z -0.15305736  0.09442814  0.11990889 -0.00304074  0.05712271
  3   C            X  0.01191148  0.04746102 -0.05653798  0.00758941  0.12071241
                   Y  0.01322242  0.03348285  0.00641752  0.13267343 -0.00615259
                   Z  0.01260414 -0.02432098  0.12132972 -0.00439034  0.05592298
  4   O            X  0.03203599  0.03728978 -0.05647030  0.00771245  0.12077961
                   Y  0.08435392  0.12637406  0.00630256  0.13244142 -0.00593943
                   Z  0.14050755 -0.08705134  0.12185273 -0.00356640  0.05631288
  5   H            X -0.01186079 -0.14505303 -0.05618284  0.00930370  0.12114670
                   Y  0.03574992  0.00392570  0.00610482  0.13483727 -0.00484556
                   Z  0.08981175  0.00557643  0.12028646  0.00063766  0.05934777
  6   H            X -0.03299376  0.05290238 -0.05672063  0.00745500  0.12062484
                   Y -0.13740988 -0.17119189  0.00664996  0.13338996 -0.00650301
                   Z -0.25335742  0.11419990  0.12010364 -0.00569986  0.05540435
  7   H            X -0.05087149 -0.11173661 -0.05635826  0.00893561  0.12099099
                   Y -0.11025853 -0.18601506  0.00638902  0.13520812 -0.00536224
                   Z -0.17340756  0.13257589  0.11925758 -0.00131776  0.05836953
  8   H            X  0.01062200  0.13825975 -0.05674375  0.00673786  0.12048774
                   Y -0.03829999 -0.00758154  0.00659579  0.13187365 -0.00685857
                   Z -0.09648449 -0.00093471  0.12148831 -0.00708807  0.05418723

 TRANS. SAYVETZ    X  0.02570366 -0.01527166 -3.16316465  0.44833321  6.76871777
                   Y  0.02313608  0.03200710  0.35676133  7.46888200 -0.32860164
                   Z -0.02405598  0.02043317  6.77431279 -0.18380363  3.17806646
               TOTAL  0.04212655  0.04092912  7.48493173  7.48458314  7.48489317

   ROT. SAYVETZ    X  3.79889122 -3.78165811  0.04688411 -0.07207135 -0.05802063
                   Y 15.25872757-10.33603064  0.10814976 -0.04045103 -0.05382637
                   Z-10.55496506-17.44640157  0.01138449  0.13168439  0.01796003
               TOTAL 18.93852235 20.62792755  0.11842338  0.15547136  0.08115562

                            6           7           8           9          10
       FREQUENCY:         4.98      173.85      320.45      572.27      610.38  
        SYMMETRY:         A           A           A           A           A   
    REDUCED MASS:      1.71958     3.45904     2.69440     4.90513     1.18178
    IR INTENSITY:      0.00555     0.09213     0.22058     0.13790     0.17208

  1   C            X  0.02040836 -0.01862642  0.01598538 -0.09546689 -0.01627311
                   Y  0.05113354 -0.04598702  0.12850736  0.01707974 -0.03999286
                   Z  0.13406635 -0.11836832 -0.05246845  0.00853454 -0.10278634
  2   C            X  0.00092140  0.01526960  0.04296870 -0.12510226  0.00194149
                   Y  0.00370046  0.03775765 -0.09601609  0.03560272  0.00498023
                   Z  0.01061858  0.09683009  0.03055174  0.00586752  0.01280216
  3   C            X -0.01952248 -0.01907184 -0.02421408  0.09717938  0.00410937
                   Y -0.04662703 -0.04701769  0.09835129  0.04842271  0.01006426
                   Z -0.11600940 -0.12084945 -0.03440883 -0.03413447  0.02550372
  4   O            X -0.00388506  0.01749236 -0.01785979  0.12014836  0.00001841
                   Y -0.00860430  0.04308289 -0.09192400 -0.09666752 -0.00033404
                   Z -0.01686812  0.11111317  0.03853785  0.01865462 -0.00057257
  5   H            X  0.06626162 -0.02661935 -0.08672799 -0.22852662  0.04578483
                   Y  0.16317304 -0.06569898  0.17899068  0.08864990  0.11418986
                   Z  0.42288377 -0.16909138 -0.05587131  0.00110850  0.29355567
  6   H            X -0.04529509  0.02906078  0.27677930 -0.22684754 -0.06854268
                   Y -0.10916511  0.07158724 -0.21011820  0.08451330 -0.16834984
                   Z -0.27958573  0.18374747  0.03822666  0.00326799 -0.43227503
  7   H            X  0.02973844  0.03357068 -0.15693742 -0.04884027  0.08601651
                   Y  0.07429371  0.08312060 -0.23873401  0.09282501  0.21290084
                   Z  0.19093674  0.21334902  0.11752144 -0.02916197  0.54631054
  8   H            X -0.06636233 -0.04667949 -0.16352355  0.06626628  0.05817757
                   Y -0.16097554 -0.11503352  0.17086651  0.06429246  0.14363780
                   Z -0.41092289 -0.29595279 -0.04065812 -0.03578873  0.36930047

 TRANS. SAYVETZ    X -0.05623364 -0.00010617 -0.00021602 -0.00029017  0.00001388
                   Y -0.07207092 -0.00008608  0.00002495 -0.00006110  0.00002140
                   Z -0.00298599  0.00011370  0.00018494  0.00054194  0.00004704
               TOTAL  0.09146231  0.00017779  0.00028546  0.00061776  0.00005351

   ROT. SAYVETZ    X -7.43228990  0.03825714 -0.00308583 -0.00019425  0.00890818
                   Y -3.10310201 -0.10062578 -0.00885152 -0.00275836  0.00743759
                   Z  2.48479330  0.04660075 -0.02005337 -0.00402658 -0.00539614
               TOTAL  8.42866378  0.11730638  0.02213616  0.00488463  0.01279811

                           11          12          13          14          15
       FREQUENCY:       928.44      992.14     1022.47     1043.10     1179.68  
        SYMMETRY:         A           A           A           A           A   
    REDUCED MASS:      1.58018     1.33780     1.63088     1.17548     2.00999
    IR INTENSITY:      0.51087     0.85339     0.19404     0.18710     0.86371

  1   C            X  0.03123143  0.00467052  0.01691031 -0.00282253  0.00815111
                   Y -0.06449626  0.01160394  0.04191964 -0.00710395 -0.12414840
                   Z  0.02039111  0.02973803  0.10767805 -0.01808256  0.04699460
  2   C            X  0.05768833 -0.02084161 -0.00416139 -0.00099548 -0.03211193
                   Y -0.08660055 -0.05127559 -0.01003505 -0.00235098  0.03609588
                   Z  0.02445796 -0.13188899 -0.02617135 -0.00604961 -0.00898277
  3   C            X -0.02742561  0.00428070 -0.01985444 -0.01575695 -0.01730523
                   Y  0.11103532  0.01038046 -0.04917078 -0.03877904  0.14558331
                   Z -0.03907087  0.02688871 -0.12619910 -0.10000012 -0.05380580
  4   O            X -0.02989955 -0.00117117  0.00498418  0.00351750  0.00690691
                   Y -0.00718567 -0.00293402  0.01219678  0.00864369 -0.02296015
                   Z  0.00755693 -0.00752734  0.03134716  0.02226765  0.00782033
  5   H            X -0.21942586  0.00179454 -0.07368351  0.08717935  0.45975027
                   Y  0.05837870  0.00435888 -0.18319407  0.21464729 -0.35742606
                   Z  0.01088736  0.01126059 -0.47076199  0.55270029  0.06653224
  6   H            X -0.40027892  0.08425978 -0.01919378  0.06267492  0.16298542
                   Y  0.14385755  0.20726835 -0.04885818  0.15494610 -0.06274418
                   Z  0.00741353  0.53219839 -0.12493159  0.39766738 -0.00144970
  7   H            X  0.49441216  0.08914362  0.02221219 -0.04013439 -0.18173375
                   Y  0.22126291  0.22147929  0.05674875 -0.09918440 -0.07299232
                   Z -0.16348374  0.56888564  0.14707195 -0.25470806  0.05714543
  8   H            X -0.13213628 -0.01503211  0.07616915  0.06753266 -0.05924265
                   Y  0.16759196 -0.03776306  0.18755609  0.16674344  0.17262788
                   Z -0.04394106 -0.09672536  0.48325669  0.42899377 -0.05834203

 TRANS. SAYVETZ    X  0.00024603  0.00000172  0.00000232  0.00000224  0.00002940
                   Y  0.00004432  0.00001340  0.00000051  0.00002054  0.00008118
                   Z -0.00039302  0.00002034 -0.00000763  0.00003539 -0.00005637
               TOTAL  0.00046579  0.00002442  0.00000799  0.00004098  0.00010311

   ROT. SAYVETZ    X  0.00059197 -0.00488048 -0.00158000  0.00022851 -0.00008285
                   Y  0.00164053 -0.00286613  0.00058237  0.00053146 -0.00047525
                   Z -0.00013542  0.00224451 -0.00050002 -0.00012127 -0.00019117
               TOTAL  0.00174931  0.00608864  0.00175658  0.00059108  0.00051892

                           16          17          18          19          20
       FREQUENCY:      1307.73     1409.57     1474.42     1700.19     1804.64  
        SYMMETRY:         A           A           A           A           A   
    REDUCED MASS:      1.47987     1.19633     1.22566     4.01322     9.46884
    IR INTENSITY:      0.05506     0.13330     0.23310     0.05641     5.00008

  1   C            X  0.01422352 -0.07556639  0.09369248  0.18172459 -0.03527480
                   Y  0.11603842  0.02021397 -0.02687278 -0.01602334  0.00379216
                   Z -0.04739524  0.00405576 -0.00431531 -0.02238492  0.00406883
  2   C            X -0.05806964  0.02503118  0.02054461 -0.17730594  0.01049026
                   Y -0.08581169 -0.00674191  0.01306894 -0.00344968  0.00260752
                   Z  0.04253913 -0.00130843 -0.00832319  0.02928500 -0.00266522
  3   C            X -0.00303741 -0.00937056 -0.00390812  0.01821023  0.22176780
                   Y -0.01822603  0.05567728  0.04641520  0.00416968 -0.01532712
                   Z  0.00757309 -0.02018670 -0.01742508 -0.00450816 -0.02899789
  4   O            X  0.01073962 -0.03893979 -0.04635143 -0.03460424 -0.14570168
                   Y -0.00104271 -0.03196136 -0.01576799  0.00301365  0.00128286
                   Z -0.00128382  0.01856839  0.01342894  0.00428151  0.02247087
  5   H            X  0.63877290  0.05088223 -0.15581193 -0.08477842  0.07219036
                   Y -0.18877564 -0.04861659  0.10174537  0.14314762 -0.04415058
                   Z -0.02726137  0.01084292 -0.01501512 -0.04245960  0.00585229
  6   H            X -0.41799004  0.28402866 -0.43340074  0.19835744 -0.01497202
                   Y  0.08643264 -0.11801241  0.22251424 -0.20238318  0.01233758
                   Z  0.03223569  0.00109805 -0.01837002  0.04737482 -0.00250105
  7   H            X  0.09253179  0.29208541 -0.43135719  0.09673929 -0.00424051
                   Y  0.03226245  0.16805475 -0.28887443  0.21276099 -0.00851965
                   Z -0.02696405 -0.11148674  0.18028553 -0.09808646  0.00395996
  8   H            X  0.07433733  0.70429388  0.44273213  0.06951684 -0.08586538
                   Y -0.05624255 -0.31742795 -0.17342403 -0.01930463  0.12610015
                   Z  0.01021149  0.01254628 -0.00251710 -0.00333803 -0.03549780

 TRANS. SAYVETZ    X -0.00013760 -0.00000001  0.00020139  0.00007977  0.00016901
                   Y  0.00001882  0.00009814  0.00000978 -0.00016595 -0.00017161
                   Z  0.00019882  0.00004704 -0.00045522 -0.00007899 -0.00011905
               TOTAL  0.00024252  0.00010883  0.00049787  0.00020036  0.00026868

   ROT. SAYVETZ    X -0.00027636  0.00007676  0.00073691  0.00022304 -0.00012423
                   Y -0.00083073  0.00033788  0.00157971  0.00080893 -0.00029921
                   Z -0.00054878  0.00005347  0.00069690  0.00134189 -0.00034399
               TOTAL  0.00103327  0.00035059  0.00187728  0.00158265  0.00047253

                           21          22          23          24
       FREQUENCY:      2898.74     3159.89     3196.13     3247.04  
        SYMMETRY:         A           A           A           A   
    REDUCED MASS:      1.08411     1.05973     1.09419     1.11515
    IR INTENSITY:      2.52288     0.14911     0.06322     0.19141

  1   C            X -0.00245009  0.00244612 -0.03816871 -0.00840198
                   Y  0.00131750 -0.00761257 -0.06551831 -0.01203627
                   Z -0.00012536  0.00258012  0.03147922  0.00600252
  2   C            X  0.00116235 -0.06139812  0.00822908  0.02468640
                   Y  0.00015700 -0.01821542  0.01728910 -0.08403418
                   Z -0.00024574  0.01677462 -0.00803667  0.02885687
  3   C            X -0.03125083  0.00061578 -0.00262222 -0.00042899
                   Y -0.06676909 -0.00133064  0.00098093  0.00008572
                   Z  0.03086038  0.00041458  0.00002781  0.00003394
  4   O            X -0.00183602 -0.00051301  0.00091300  0.00010626
                   Y  0.00059786  0.00018547 -0.00009537  0.00001058
                   Z  0.00005892  0.00001145 -0.00010537 -0.00002058
  5   H            X -0.00292986  0.04700265  0.39899451  0.07023039
                   Y -0.00550155  0.09148155  0.76271072  0.13072736
                   Z  0.00260385 -0.04295372 -0.35924682 -0.06186343
  6   H            X  0.00121780  0.31635884 -0.07202555  0.22048743
                   Y -0.01124992  0.64971331 -0.14685657  0.42386691
                   Z  0.00419758 -0.30304828  0.06859955 -0.19995630
  7   H            X  0.00258717  0.33678351  0.04446112 -0.48020153
                   Y  0.00533138 -0.43118224 -0.05551591  0.58332182
                   Z -0.00244419  0.11501756  0.01467446 -0.15162640
  8   H            X  0.41567326  0.00253050  0.00176261 -0.00098434
                   Y  0.77936549  0.01041762  0.00374375  0.00477803
                   Z -0.36822533 -0.00438918 -0.00170446 -0.00169494

 TRANS. SAYVETZ    X -0.00002196 -0.00006622 -0.00002597  0.00000627
                   Y -0.00001777  0.00000064 -0.00000892 -0.00001181
                   Z  0.00009844  0.00019957  0.00010900  0.00000112
               TOTAL  0.00010241  0.00021028  0.00011240  0.00001342

   ROT. SAYVETZ    X -0.00022389 -0.00002166 -0.00005829  0.00005569
                   Y -0.00036619 -0.00035757 -0.00045241  0.00005635
                   Z -0.00069194  0.00002989 -0.00050032  0.00005917
               TOTAL  0.00081425  0.00035947  0.00067705  0.00009888

 REFERENCE ON SAYVETZ CONDITIONS - A. SAYVETZ, J.CHEM.PHYS., 7, 383-389(1939).

 NOTE - THE MODES J,K ARE ORTHONORMALIZED ACCORDING TO
 SUM ON I   M(I) * (X(I,J)*X(I,K) + Y(I,J)*Y(I,K) + Z(I,J)*Z(I,K)) = DELTA(J,K)

  MODE FREQ(CM**-1)  SYMMETRY  RED. MASS  IR INTENS.
     1       8.670    A        4.742568    0.113445
     2       7.911    A        4.705923    0.083697
     3       0.171    A        7.033363    0.000015
     4       0.065    A        6.972472    0.000001
     5       0.046    A        6.999490    0.000000
     6       4.984    A        1.719577    0.005555
     7     173.854    A        3.459038    0.092126
     8     320.450    A        2.694397    0.220578
     9     572.272    A        4.905127    0.137901
    10     610.375    A        1.181778    0.172082
    11     928.439    A        1.580178    0.510868
    12     992.142    A        1.337798    0.853390
    13    1022.475    A        1.630883    0.194043
    14    1043.102    A        1.175482    0.187097
    15    1179.679    A        2.009988    0.863707
    16    1307.733    A        1.479870    0.055055
    17    1409.571    A        1.196328    0.133301
    18    1474.422    A        1.225659    0.233096
    19    1700.190    A        4.013223    0.056405
    20    1804.637    A        9.468838    5.000077
    21    2898.735    A        1.084108    2.522883
    22    3159.887    A        1.059735    0.149109
    23    3196.129    A        1.094191    0.063216
    24    3247.043    A        1.115150    0.191410

     -------------------------------
     THERMOCHEMISTRY AT T=  298.15 K
     -------------------------------

 USING IDEAL GAS, RIGID ROTOR, HARMONIC NORMAL MODE APPROXIMATIONS.
 P=  1.01325E+05 PASCAL.
 ALL FREQUENCIES ARE SCALED BY   1.00000
 THE MOMENTS OF INERTIA ARE (IN AMU*BOHR**2)
             37.66087           389.97947           427.64033
 THE ROTATIONAL SYMMETRY NUMBER IS  1.0
 THE ROTATIONAL CONSTANTS ARE (IN GHZ)
     47.87697     4.62355     4.21637
      7 -     24 VIBRATIONAL MODES ARE USED IN THERMOCHEMISTRY.
 THE HARMONIC ZERO POINT ENERGY IS (SCALED BY   1.000)
        0.061604 HARTREE/MOLECULE    13520.567313 CM**-1/MOLECULE 
       38.657281 KCAL/MOL              161.742062 KJ/MOL

               Q               LN Q
 ELEC.     1.00000E+00       0.000000
 TRANS.    1.64832E+07      16.617850
 ROT.      2.83692E+04      10.253059
 VIB.      2.62692E+00       0.965812
 TOT.      1.22838E+12      27.836721

              E         H         G         CV        CP        S
           KJ/MOL    KJ/MOL    KJ/MOL   J/MOL-K   J/MOL-K   J/MOL-K
 ELEC.      0.000     0.000     0.000     0.000     0.000     0.000
 TRANS.     3.718     6.197   -41.195    12.472    20.786   158.954
 ROT.       3.718     3.718   -25.417    12.472    12.472    97.720
 VIB.     165.745   165.745   159.348    32.439    32.439    21.457
 TOTAL    173.182   175.661    92.736    57.382    65.697   278.131
 VIB. THERMAL CORRECTION E(T)-E(0) = H(T)-H(0) =      4003.290 J/MOL

              E         H         G         CV        CP        S
         KCAL/MOL  KCAL/MOL  KCAL/MOL CAL/MOL-K CAL/MOL-K CAL/MOL-K
 ELEC.      0.000     0.000     0.000     0.000     0.000     0.000
 TRANS.     0.889     1.481    -9.846     2.981     4.968    37.991
 ROT.       0.889     0.889    -6.075     2.981     2.981    23.356
 VIB.      39.614    39.614    38.085     7.753     7.753     5.128
 TOTAL     41.392    41.984    22.165    13.715    15.702    66.475
 VIB. THERMAL CORRECTION E(T)-E(0) = H(T)-H(0) =       956.809 CAL/MOL
 ......END OF NORMAL COORDINATE ANALYSIS......
 STEP CPU TIME =     0.00 TOTAL CPU TIME =        790.5 (     13.2 MIN)
 TOTAL WALL CLOCK TIME=        816.8 SECONDS, CPU UTILIZATION IS    96.79%
               1080583  WORDS OF DYNAMIC MEMORY USED
 EXECUTION OF GAMESS TERMINATED NORMALLY Mon Oct  3 21:07:13 2022
 DDI: 263640 bytes (0.3 MB / 0 MWords) used by master data server.

 ----------------------------------------
 CPU timing information for all processes
 ========================================
 0: 785.591 + 4.945 = 790.536
 ----------------------------------------
 ddikick.x: exited gracefully.
----- accounting info -----
Files used on the master node chemcompute-node-1.novalocal were:
-rw-r--r--. 1 chemcomp chemcomp      985 Oct  3 20:53 /scratch/120454/460015.F05
-rw-rw-r--. 1 chemcomp chemcomp 65536000 Oct  3 21:07 /scratch/120454/460015.F10
-rw-rw-r--. 1 chemcomp chemcomp  4143136 Oct  3 21:07 /scratch/120454/460015.F22
Mon Oct  3 21:07:16 UTC 2022
0.093u 0.039s 13:40.13 0.0%	0+0k 8+208io 0pf+0w
Finishing Up...
Looking for IR data...
Looking for Raman data...
vibramans not found
Looking for thermodynamics data...
Looking for UV-Vis data...
chemcompute.org
{'UTCtimestamp': '2022-10-03T21:07:18.235488', 'cluster': 'jetstream2', 'clusterJobNumber': '120454', 'status': 'COMPLETE', 'nodeList': 'chemcompute-node-1'}
120454
