chemcompute.org
{'UTCtimestamp': '2022-10-03T21:28:27.616797', 'cluster': 'jetstream2', 'clusterJobNumber': '120480', 'status': 'RUNNING', 'nodeList': 'chemcompute-node-0'}
----- GAMESS execution script 'rungms' -----
This job is running on host chemcompute-node-0.novalocal
under operating system Linux at Mon Oct 3 21:28:31 UTC 2022
SLURM has assigned the following compute nodes to this run:
Available scratch disk space (Kbyte units) at beginning of the job is
Filesystem     1K-blocks     Used Available Use% Mounted on
/dev/sda1       62903276 11841492  51061784  19% /
GAMESS temporary binary files will be written to /scratch/120480
GAMESS supplementary output files will be written to /data/slurm/46/460049
Copying input file 460049.inp to your run's scratch directory...
The generated host list is
chemcompute-node-0.novalocal

 Distributed Data Interface kickoff program.
 Initiating 1 compute processes on 1 nodes to run the following command:
 /data/gamess-2019R1-avx2-ddi/gamess.00.x 460049 

          ******************************************************
          *         GAMESS VERSION = 30 JUN 2019 (R1)          *
          *             FROM IOWA STATE UNIVERSITY             *
          * M.W.SCHMIDT, K.K.BALDRIDGE, J.A.BOATZ, S.T.ELBERT, *
          *   M.S.GORDON, J.H.JENSEN, S.KOSEKI, N.MATSUNAGA,   *
          *          K.A.NGUYEN, S.J.SU, T.L.WINDUS,           *
          *       TOGETHER WITH M.DUPUIS, J.A.MONTGOMERY       *
          *         J.COMPUT.CHEM.  14, 1347-1363(1993)        *
          **************** 64 BIT INTEL VERSION ****************

  SINCE 1993, STUDENTS AND POSTDOCS WORKING AT IOWA STATE UNIVERSITY
  AND ALSO IN THEIR VARIOUS JOBS AFTER LEAVING ISU HAVE MADE IMPORTANT
  CONTRIBUTIONS TO THE CODE:
     IVANA ADAMOVIC, CHRISTINE AIKENS, YURI ALEXEEV, POOJA ARORA,
     ANDREY ASADCHEV, ROB BELL, PRADIPTA BANDYOPADHYAY, JONATHAN BENTZ,
     COLLEEN BERTONI, BRETT BODE, KURT BRORSEN, CALEB CARLIN, GALINA CHABAN,
     WEI CHEN, CHEOL HO CHOI, PAUL DAY, ALBERT DEFUSCO, NUWAN DESILVA,
     TIM DUDLEY, DMITRI FEDOROV, ALEX FINDLATER, GRAHAM FLETCHER, 
     MARK FREITAG, KURT GLAESEMANN, ANASTASIA GUNINA,
     DAN KEMP, GRANT MERRILL, NORIYUKI MINEZAWA, JONATHAN MULLIN,
     TAKESHI NAGATA, SEAN NEDD, HEATHER NETZLOFF, BOSILJKA NJEGIC, RYAN OLSON,
     MIKE PAK, BUU PHAM,
     SPENCER PRUITT, LUKE ROSKOP, JIM SHOEMAKER, LYUDMILA SLIPCHENKO,
     TONY SMITH, SAROM SOK LEANG, JIE SONG, TETSUYA TAKETSUGU, SIMON WEBB,
     PENG XU, SOOHAENG YOO, FEDERICO ZAHARIEV

  ADDITIONAL CODE HAS BEEN PROVIDED BY COLLABORATORS IN OTHER GROUPS:
     IOWA STATE UNIVERSITY:
          JOE IVANIC, AARON WEST, LAIMUTIS BYTAUTAS, KLAUS RUEDENBERG
     UNIVERSITY OF TOKYO: KIMIHIKO HIRAO, TAKAHITO NAKAJIMA,
          TAKAO TSUNEDA, MUNEAKI KAMIYA, SUSUMU YANAGISAWA,
          KIYOSHI YAGI, MAHITO CHIBA, SEIKEN TOKURA, NAOAKI KAWAKAMI
     UNIVERSITY OF AARHUS: FRANK JENSEN
     UNIVERSITY OF IOWA: VISVALDAS KAIRYS, HUI LI
     NATIONAL INST. OF STANDARDS AND TECHNOLOGY: WALT STEVENS, DAVID GARMER
     UNIVERSITY OF PISA: BENEDETTA MENNUCCI, JACOPO TOMASI
     UNIVERSITY OF MEMPHIS: HENRY KURTZ, PRAKASHAN KORAMBATH
     UNIVERSITY OF ALBERTA: TOBY ZENG, MARIUSZ KLOBUKOWSKI
     UNIVERSITY OF NEW ENGLAND: MARK SPACKMAN
     MIE UNIVERSITY: HIROAKI UMEDA
     NAT. INST. OF ADVANCED INDUSTRIAL SCIENCE AND TECHNOLOGY: KAZUO KITAURA
     MICHIGAN STATE UNIVERSITY:
          KAROL KOWALSKI, MARTA WLOCH, JEFFREY GOUR, JESSE LUTZ,
          WEI LI, JUN SHEN, J. EMILIANO DEUSTUA, PIOTR PIECUCH
     UNIVERSITY OF MINNESOTA:
          YINAN SHU
     UNIVERSITY OF SILESIA: MONIKA MUSIAL, STANISLAW KUCHARSKI
     FACULTES UNIVERSITAIRES NOTRE-DAME DE LA PAIX:
          OLIVIER QUINET, BENOIT CHAMPAGNE
     UNIVERSITY OF CALIFORNIA - SANTA BARBARA: BERNARD KIRTMAN
     INSTITUTE FOR MOLECULAR SCIENCE:
          KAZUYA ISHIMURA, MICHIO KATOUDA, AND SHIGERU NAGASE
     UNIVERSITY OF NOTRE DAME: ANNA POMOGAEVA, DAN CHIPMAN
     KYUSHU UNIVERSITY:
          HARUYUKI NAKANO,
          FENG LONG GU, JACEK KORCHOWIEC, MARCIN MAKOWSKI, AND YURIKO AOKI,
          HIROTOSHI MORI AND EISAKU MIYOSHI
     PENNSYLVANIA STATE UNIVERSITY:
          TZVETELIN IORDANOV, CHET SWALINA, JONATHAN SKONE,
          SHARON HAMMES-SCHIFFER
     WASEDA UNIVERSITY:
          MASATO KOBAYASHI, TOMOKO AKAMA, TSUGUKI TOUMA,
          TAKESHI YOSHIKAWA, YASUHIRO IKABATA, JUNJI SEINO,
          YUYA NAKAJIMA, HIROMI NAKAI
     NANJING UNIVERSITY: SHUHUA LI
     UNIVERSITY OF NEBRASKA:
          PEIFENG SU, DEJUN SI, NANDUN THELLAMUREGE, YALI WANG, HUI LI
     UNIVERSITY OF ZURICH: ROBERTO PEVERATI, KIM BALDRIDGE
     N. COPERNICUS UNIVERSITY AND JACKSON STATE UNIVERSITY:
          MARIA BARYSZ
     UNIVERSITY OF COPENHAGEN: Jimmy Kromann, CASPER STEINMANN
     TOKYO INSTITUTE OF TECHNOLOGY: HIROYA NAKATA
     NAGOYA UNIVERSITY: YOSHIO NISHIMOTO, STEPHAN IRLE
     MOSCOW STATE UNIVERSITY: VLADIMIR MIRONOV
     A.N.NESMEYANOV INSTITUTE OF ORGANOELEMENT COMPOUNDS OF RUSSIAN ACADEMY OF SCIENCES:
          IGOR S. GERASIMOV

 EXECUTION OF GAMESS BEGUN Mon Oct  3 21:28:31 2022

            ECHO OF THE FIRST FEW INPUT CARDS -
 INPUT CARD>!                                                                               
 INPUT CARD>!   GAMESS Calculation input file                                               
 INPUT CARD>!                                                                               
 INPUT CARD>!                                                                               
 INPUT CARD> $CONTRL SCFTYP=RHF MAXIT=200 RUNTYP=OPTIMIZE                                   
 INPUT CARD>         COORD=UNIQUE MULT=1                                                    
 INPUT CARD>         ICHARG=0                                                               
 INPUT CARD>         DFTTYP=B3LYP                                                           
 INPUT CARD>         MOLPLT=.FALSE. PLTORB=.FALSE.  $END                                    
 INPUT CARD> $SYSTEM TIMLIM=2879 MWORDS=250  $END                                           
 INPUT CARD>                                                                                
 INPUT CARD> $FORCE METHOD=SEMINUM NVIB=2 $END                                              
 INPUT CARD> $STATPT OPTTOL=0.0005 NSTEP=999 $END                                           
 INPUT CARD> $STATPT IHREP=0 HSSEND=.TRUE.  $END                                            
 INPUT CARD>                                                                                
 INPUT CARD> $DFT    METHOD=GRID  NLEB=590  $END                                            
 INPUT CARD>                                                                                
 INPUT CARD> $BASIS  GBASIS=N31 NGAUSS=6                                                    
 INPUT CARD>         NDFUNC=1   NPFUNC=0  $END                                              
 INPUT CARD>                                                                                
 INPUT CARD> $SCF    DIRSCF=.T. $END                                                        
 INPUT CARD> $GUESS  GUESS=HUCKEL  $END                                                     
 INPUT CARD>                                                                                
 INPUT CARD> $DATA                                                                          
 INPUT CARD>                                                                                
 INPUT CARD>  Cs                                                                            
 INPUT CARD>                                                                                
 INPUT CARD>C     6.0     0.24     1.23     0.00                                            
 INPUT CARD>C     6.0    -0.48    -0.09    -0.00                                            
 INPUT CARD>N     7.0     0.14    -1.23     0.00                                            
 INPUT CARD>H     1.0     0.87     1.31    -0.89                                            
 INPUT CARD>H     1.0    -0.49     2.04    -0.00                                            
 INPUT CARD>H     1.0    -1.58    -0.07    -0.00                                            
 INPUT CARD>H     1.0     1.16    -1.10     0.00                                            
 INPUT CARD> $END                                                                           
 INPUT CARD>                                                                                
 INPUT CARD>                                                                                
 INPUT CARD>! Customizations after this line are persisted when using Do More Calculations  
  250000000 WORDS OF MEMORY AVAILABLE

     BASIS OPTIONS
     -------------
     GBASIS=N31          IGAUSS=       6      POLAR=POPN31  
     NDFUNC=       1     NFFUNC=       0     DIFFSP=       F
     NPFUNC=       0      DIFFS=       F     BASNAM=        


     RUN TITLE
     ---------
                                                                                 

 THE POINT GROUP OF THE MOLECULE IS CS      
 THE ORDER OF THE PRINCIPAL AXIS IS     0

 ATOM      ATOMIC                      COORDINATES (BOHR)
           CHARGE         X                   Y                   Z
 C           6.0     0.4535342371        2.3243629649        0.0000000000
 C           6.0    -0.9070684741       -0.1700753389        0.0000000000
 N           7.0     0.2645616383       -2.3243629649        0.0000000000
 H           1.0     1.6440616093        2.4755410439        1.6818561291
 H           1.0     1.6440616093        2.4755410439       -1.6818561291
 H           1.0    -0.9259657340        3.8550410150        0.0000000000
 H           1.0    -2.9857670606       -0.1322808191        0.0000000000
 H           1.0     2.1920821458       -2.0786985865        0.0000000000

          INTERNUCLEAR DISTANCES (ANGS.)
          ------------------------------

                1 C          2 C          3 N          4 H          5 H     

   1 C       0.0000000    1.5035957 *  2.4620317 *  1.0933435 *  1.0933435 *
   2 C       1.5035957 *  0.0000000    1.2976903 *  2.1388315 *  2.1388315 *
   3 N       2.4620317 *  1.2976903 *  0.0000000    2.7886556 *  2.7886556 *
   4 H       1.0933435 *  2.1388315 *  2.7886556 *  0.0000000    1.7800000 *
   5 H       1.0933435 *  2.1388315 *  2.7886556 *  1.7800000 *  0.0000000  
   6 H       1.0904128 *  2.1300235 *  3.3301351    1.7817407 *  1.7817407 *
   7 H       2.2366046 *  1.1001818 *  2.0746084 *  2.9494067 *  2.9494067 *
   8 H       2.5050549 *  1.9260582 *  1.0282509 *  2.5854013 *  2.5854013 *

                6 H          7 H          8 H     

   1 C       1.0904128 *  2.2366046 *  2.5050549 *
   2 C       2.1300235 *  1.1001818 *  1.9260582 *
   3 N       3.3301351    2.0746084 *  1.0282509 *
   4 H       1.7817407 *  2.9494067 *  2.5854013 *
   5 H       1.7817407 *  2.9494067 *  2.5854013 *
   6 H       0.0000000    2.3749105 *  3.5471256  
   7 H       2.3749105 *  0.0000000    2.9272000 *
   8 H       3.5471256    2.9272000 *  0.0000000  

  * ... LESS THAN  3.000


     ATOMIC BASIS SET
     ----------------
 THE CONTRACTED PRIMITIVE FUNCTIONS HAVE BEEN UNNORMALIZED
 THE CONTRACTED BASIS FUNCTIONS ARE NOW NORMALIZED TO UNITY

  SHELL TYPE  PRIMITIVE        EXPONENT          CONTRACTION COEFFICIENT(S)

 C         

      1   S       1          3047.5248800    0.001834737132
      1   S       2           457.3695180    0.014037322813
      1   S       3           103.9486850    0.068842622264
      1   S       4            29.2101553    0.232184443216
      1   S       5             9.2866630    0.467941348435
      1   S       6             3.1639270    0.362311985337

      2   L       7             7.8682723   -0.119332419775    0.068999066591
      2   L       8             1.8812885   -0.160854151696    0.316423960957
      2   L       9             0.5442493    1.143456437840    0.744308290898

      3   L      10             0.1687145    1.000000000000    1.000000000000

      4   D      11             0.8000000    1.000000000000

 C         

      5   S      12          3047.5248800    0.001834737132
      5   S      13           457.3695180    0.014037322813
      5   S      14           103.9486850    0.068842622264
      5   S      15            29.2101553    0.232184443216
      5   S      16             9.2866630    0.467941348435
      5   S      17             3.1639270    0.362311985337

      6   L      18             7.8682723   -0.119332419775    0.068999066591
      6   L      19             1.8812885   -0.160854151696    0.316423960957
      6   L      20             0.5442493    1.143456437840    0.744308290898

      7   L      21             0.1687145    1.000000000000    1.000000000000

      8   D      22             0.8000000    1.000000000000

 N         

      9   S      23          4173.5114600    0.001834772160
      9   S      24           627.4579110    0.013994627002
      9   S      25           142.9020930    0.068586551812
      9   S      26            40.2343293    0.232240873040
      9   S      27            12.8202129    0.469069948082
      9   S      28             4.3904370    0.360455199063

     10   L      29            11.6263619   -0.114961181702    0.067579743878
     10   L      30             2.7162798   -0.169117478561    0.323907295893
     10   L      31             0.7722184    1.145851947027    0.740895139755

     11   L      32             0.2120315    1.000000000000    1.000000000000

     12   D      33             0.8000000    1.000000000000

 H         

     15   S      34            18.7311370    0.033494604338
     15   S      35             2.8253944    0.234726953484
     15   S      36             0.6401217    0.813757326146

     16   S      37             0.1612778    1.000000000000

 H         

     17   S      38            18.7311370    0.033494604338
     17   S      39             2.8253944    0.234726953484
     17   S      40             0.6401217    0.813757326146

     18   S      41             0.1612778    1.000000000000

 H         

     19   S      42            18.7311370    0.033494604338
     19   S      43             2.8253944    0.234726953484
     19   S      44             0.6401217    0.813757326146

     20   S      45             0.1612778    1.000000000000

 H         

     21   S      46            18.7311370    0.033494604338
     21   S      47             2.8253944    0.234726953484
     21   S      48             0.6401217    0.813757326146

     22   S      49             0.1612778    1.000000000000

 TOTAL NUMBER OF BASIS SET SHELLS             =   22
 NUMBER OF CARTESIAN GAUSSIAN BASIS FUNCTIONS =   55
 NUMBER OF ELECTRONS                          =   24
 CHARGE OF MOLECULE                           =    0
 SPIN MULTIPLICITY                            =    1
 NUMBER OF OCCUPIED ORBITALS (ALPHA)          =   12
 NUMBER OF OCCUPIED ORBITALS (BETA )          =   12
 TOTAL NUMBER OF ATOMS                        =    8
 THE NUCLEAR REPULSION ENERGY IS       70.5941837013

 SELECTED MURRAY-HANDY-LAMING RADIAL GRID

 LEGACY BECKE'S FUZZY CELL METHOD

 SELECTED ORIGINAL BECKE'S PARTITION FUNCTION

     LEBEDEV GRID-BASED DFT OPTIONS
     ------------------------------
     DFTTYP=B3LYP   
     NRAD  =      96     NLEB  =     590
     NRAD0 =      24     NLEB0 =     110
     SWOFF =    5.00E-03 (PURE SCF -> DFT)
     SWITCH=    3.00E-04 (COARSE -> TIGHT GRID)
     THRESH=    0.00E+00 GTHRE=    1.00E+00

 GRIMME'S EMPIRICAL DISPERSION CORRECTION= F

     $CONTRL OPTIONS
     ---------------
 SCFTYP=RHF          RUNTYP=OPTIMIZE     EXETYP=RUN     
 MPLEVL=       0     CITYP =NONE         CCTYP =NONE         VBTYP =NONE    
 DFTTYP=B3LYP        TDDFT =NONE    
 MULT  =       1     ICHARG=       0     NZVAR =       0     COORD =UNIQUE  
 PP    =NONE         RELWFN=NONE         LOCAL =NONE         NUMGRD=       F
 ISPHER=      -1     NOSYM =       0     MAXIT =     200     UNITS =ANGS    
 PLTORB=       F     MOLPLT=       F     AIMPAC=       F     FRIEND=        
 NPRINT=       7     IREST =       0     GEOM  =INPUT   
 NORMF =       0     NORMP =       0     ITOL  =      20     ICUT  =       9
 INTTYP=BEST         GRDTYP=BEST         QMTTOL= 1.0E-06

     $SYSTEM OPTIONS
     ---------------
  REPLICATED MEMORY=   250000000 WORDS (ON EVERY NODE).
 DISTRIBUTED MEMDDI=           0 MILLION WORDS IN AGGREGATE,
 MEMDDI DISTRIBUTED OVER   1 PROCESSORS IS           0 WORDS/PROCESSOR.
 TOTAL MEMORY REQUESTED ON EACH PROCESSOR=   250000000 WORDS.
 TIMLIM=        2879.00 MINUTES, OR       2.0 DAYS.
 PARALL= F  BALTYP=  DLB     KDIAG=    0  COREFL= F
 MXSEQ2=     300 MXSEQ3=     150  mem10=         0

          ----------------
          PROPERTIES INPUT
          ----------------

     MOMENTS            FIELD           POTENTIAL          DENSITY
 IEMOM =       1   IEFLD =       0   IEPOT =       0   IEDEN =       0
 WHERE =COMASS     WHERE =NUCLEI     WHERE =NUCLEI     WHERE =NUCLEI  
 OUTPUT=BOTH       OUTPUT=BOTH       OUTPUT=BOTH       OUTPUT=BOTH    
 IEMINT=       0   IEFINT=       0                     IEDINT=       0
                                                       MORB  =       0
          EXTRAPOLATION IN EFFECT
          DIIS IN EFFECT
 ORBITAL PRINTING OPTION: NPREO=     1    55     2     1

     -------------------------------
     INTEGRAL TRANSFORMATION OPTIONS
     -------------------------------
     NWORD  =            0
     CUTOFF = 1.0E-09     MPTRAN =       0
     DIRTRF =       T     AOINTS =DUP     

          ----------------------
          INTEGRAL INPUT OPTIONS
          ----------------------
 NOPK  =       1 NORDER=       0 SCHWRZ=       T

     ------------------------------------------
     THE POINT GROUP IS CS , NAXIS= 0, ORDER= 2
     ------------------------------------------

     DIMENSIONS OF THE SYMMETRY SUBSPACES ARE
 A'  =   41     A'' =   14

 ..... DONE SETTING UP THE RUN .....
 STEP CPU TIME =     0.01 TOTAL CPU TIME =          0.0 (      0.0 MIN)
 TOTAL WALL CLOCK TIME=          0.0 SECONDS, CPU UTILIZATION IS    20.00%


          -----------------------------
          STATIONARY POINT LOCATION RUN
          -----------------------------

 OBTAINING INITIAL HESSIAN, HESS=GUESS   
 CARTESIAN COORDINATE OPTIMIZATION USING BADGER'S RULE FORCE CONSTANT GUESS

          PARAMETERS CONTROLLING GEOMETRY SEARCH ARE
          METHOD =QA                  UPHESS =BFGS    
          NNEG   =         0          NFRZ   =         0
          NSTEP  =       999          IFOLOW =         1
          HESS   =GUESS               RESTAR =         F
          IHREP  =         0          HSSEND =         T
          NPRT   =         0          NPUN   =         0
          OPTTOL = 5.000E-04          RMIN   = 1.500E-03
          RMAX   = 1.000E-01          RLIM   = 7.000E-02
          DXMAX  = 3.000E-01          PURIFY =         F
          MOVIE  =         F          TRUPD  =         T
          TRMAX  = 5.000E-01          TRMIN  = 5.000E-02
          ITBMAT =         5          STPT   =         F
          STSTEP = 1.000E-02          PROJCT=          T

 BEGINNING GEOMETRY SEARCH POINT NSERCH=   0 ...

 COORDINATES OF SYMMETRY UNIQUE ATOMS (ANGS)
   ATOM   CHARGE       X              Y              Z
 ------------------------------------------------------------
 C           6.0   0.2400000000   1.2300000000   0.0000000000
 C           6.0  -0.4800000000  -0.0900000000   0.0000000000
 N           7.0   0.1400000000  -1.2300000000   0.0000000000
 H           1.0   0.8700000000   1.3100000000  -0.8900000000
 H           1.0  -0.4900000000   2.0400000000   0.0000000000
 H           1.0  -1.5800000000  -0.0700000000   0.0000000000
 H           1.0   1.1600000000  -1.1000000000   0.0000000000
 COORDINATES OF ALL ATOMS ARE (ANGS)
   ATOM   CHARGE       X              Y              Z
 ------------------------------------------------------------
 C           6.0   0.2400000000   1.2300000000   0.0000000000
 C           6.0  -0.4800000000  -0.0900000000   0.0000000000
 N           7.0   0.1400000000  -1.2300000000   0.0000000000
 H           1.0   0.8700000000   1.3100000000   0.8900000000
 H           1.0   0.8700000000   1.3100000000  -0.8900000000
 H           1.0  -0.4900000000   2.0400000000   0.0000000000
 H           1.0  -1.5800000000  -0.0700000000   0.0000000000
 H           1.0   1.1600000000  -1.1000000000   0.0000000000

          ********************
          1 ELECTRON INTEGRALS
          ********************
 ...... END OF ONE-ELECTRON INTEGRALS ......
 STEP CPU TIME =     0.00 TOTAL CPU TIME =          0.0 (      0.0 MIN)
 TOTAL WALL CLOCK TIME=          0.1 SECONDS, CPU UTILIZATION IS    16.67%

          -------------
          GUESS OPTIONS
          -------------
          GUESS =HUCKEL            NORB  =       0          NORDER=       0
          MIX   =       F          PRTMO =       F          PUNMO =       F
          TOLZ  = 1.0E-08          TOLE  = 1.0E-05
          SYMDEN=       F          PURIFY=       F

 INITIAL GUESS ORBITALS GENERATED BY HUCKEL   ROUTINE.
 HUCKEL GUESS REQUIRES     29549 WORDS.

 SYMMETRIES FOR INITIAL GUESS ORBITALS FOLLOW.   BOTH SET(S).
    12 ORBITALS ARE OCCUPIED (    3 CORE ORBITALS).
     4=A'       5=A'       6=A'       7=A''      8=A'       9=A'      10=A'  
    11=A''     12=A'      13=A''     14=A'      15=A'      16=A''     17=A'  
    18=A'      19=A'      20=A'      21=A'      22=A'  
 ...... END OF INITIAL ORBITAL SELECTION ......
 STEP CPU TIME =     0.02 TOTAL CPU TIME =          0.0 (      0.0 MIN)
 TOTAL WALL CLOCK TIME=          0.1 SECONDS, CPU UTILIZATION IS    37.50%

                    ----------------------
                    AO INTEGRAL TECHNOLOGY
                    ----------------------
     S,P,L SHELL ROTATED AXIS INTEGRALS, REPROGRAMMED BY
        KAZUYA ISHIMURA (IMS) AND JOSE SIERRA (SYNSTAR).
     S,P,D,L SHELL ROTATED AXIS INTEGRALS PROGRAMMED BY
        KAZUYA ISHIMURA (INSTITUTE FOR MOLECULAR SCIENCE).
     S,P,D,F,G SHELL TO TOTAL QUARTET ANGULAR MOMENTUM SUM 5,
        ERIC PROGRAM BY GRAHAM FLETCHER (ELORET AND NASA ADVANCED
        SUPERCOMPUTING DIVISION, AMES RESEARCH CENTER).
     S,P,D,F,G,L SHELL GENERAL RYS QUADRATURE PROGRAMMED BY
        MICHEL DUPUIS (PACIFIC NORTHWEST NATIONAL LABORATORY).

          --------------------
          2 ELECTRON INTEGRALS
          --------------------

 DIRECT SCF METHOD SKIPS INTEGRAL STORAGE ON DISK.
 DIRECT TRANSFORMATION SKIPS AO INTEGRAL STORAGE ON DISK.
  ...... END OF TWO-ELECTRON INTEGRALS .....
 STEP CPU TIME =     0.01 TOTAL CPU TIME =          0.0 (      0.0 MIN)
 TOTAL WALL CLOCK TIME=          0.1 SECONDS, CPU UTILIZATION IS    40.00%

          --------------------------
             R-B3LYP SCF CALCULATION
          --------------------------

     NUCLEAR ENERGY =        70.5941837013
     MAXIT =  200     NPUNCH=    2
     EXTRAP=T  DAMP=F  SHIFT=F  RSTRCT=F  DIIS=T  DEM=F  SOSCF=F
         DENSITY MATRIX CONVERGENCE THRESHOLD=  2.00E-05
     COARSE -> FINE DFT GRID SWITCH THRESHOLD=  3.00E-04 (SWITCH IN $DFT)
                   HF -> DFT SWITCH THRESHOLD=  5.00E-03 (SWOFF IN $DFT)
     MEMORY REQUIRED FOR RHF ITERS=    607760 WORDS.

 DIRECT SCF CALCULATION, SCHWRZ=T   FDIFF=T,  DIRTHR=  0.00E+00 NITDIR=10
 SCHWARZ INEQUALITY OVERHEAD:      1539 INTEGRALS, T=        0.00

 DFT CODE IS SWITCHING FROM THE FINE GRID NRAD= 96,  NLEB=  590
                      TO THE COARSE GRID NRAD0= 24, NLEB0=  110

     EXCHANGE FUNCTIONAL   =B88&HFX   
     CORRELATION FUNCTIONAL=LYP88&VWN5
     DFT THRESHOLD         =.883E-08
     GRID CHANGE THRESHOLD =.300E-03
 FOR AN EULER-MACLAURIN QUADRATURE USING  96 RADIAL POINTS:
 SMALLEST GAUSSIAN PRIMITIVE EXPONENT=        0.1612777588 OF TYPE -S-
 ON ATOM NUMBER   4 HAS RADIAL NORMALIZATION=  1.000000
  LARGEST GAUSSIAN PRIMITIVE EXPONENT=     4173.5114600000 OF TYPE -S-
 ON ATOM NUMBER   3 HAS RADIAL NORMALIZATION=  1.000000
 DFT IS SWITCHED OFF, PERFORMING PURE SCF UNTIL SWOFF THRESHOLD IS REACHED.

                                                                                   NONZERO     BLOCKS
 ITER EX DEM     TOTAL ENERGY        E CHANGE  DENSITY CHANGE    DIIS ERROR      INTEGRALS    SKIPPED
   1  0  0     -132.6484546563  -132.6484546563   0.258402664   0.619417623         619367        554
          * * *   INITIATING DIIS PROCEDURE   * * *
   2  1  0     -133.0136488493    -0.3651941931   0.142669388   0.103553254         619302        621
   3  2  0     -133.0448832912    -0.0312344418   0.068652151   0.077169712         619030        727
   4  3  0     -133.0648017125    -0.0199184214   0.019652788   0.008504462         618668        826
   5  4  0     -133.0655166308    -0.0007149182   0.005113369   0.002364752         617799        977
   6  5  0     -133.0655712963    -0.0000546656   0.001882837   0.000633671         615522       1253
 CONVERGED TO SWOFF, SO DFT CALCULATION IS NOW SWITCHED ON.
          * * *   INITIATING DIIS PROCEDURE   * * *
   7  6  0     -133.8446400350    -0.7790687387   0.066874525   0.100564933         619363        559
   8  7  0     -133.8566841761    -0.0120441411   0.039676198   0.028019754         618983        726
   9  8  0     -133.8563781816     0.0003059945   0.028892963   0.028051383         618522        834
  10  9  0     -133.8588502897    -0.0024721081   0.010291578   0.008928191         618112        935
  11 10  0     -133.8591271855    -0.0002768958   0.000559971   0.000638740         616023       1210
  12 11  0     -133.8591286438    -0.0000014584   0.000140990   0.000086263         611173       1785
 DFT CODE IS SWITCHING BACK TO THE FINE GRID
          * * *   INITIATING DIIS PROCEDURE   * * *
  13 12  0     -133.8592789446    -0.0001503007   0.002413968   0.000878847         619369        553
  14 13  0     -133.8592827242    -0.0000037797   0.000378484   0.000184070         614146       1465
  15 14  0     -133.8592826631     0.0000000611   0.000298125   0.000211313         608471       2108
  16 15  0     -133.8592828429    -0.0000001798   0.000090199   0.000108240         604945       2426
  17 16  0     -133.8592828633    -0.0000000204   0.000013953   0.000013699         596874       3009
  18 17  0     -133.8592828642    -0.0000000009   0.000003077   0.000003526         583933       4020

          -----------------
          DENSITY CONVERGED
          -----------------
     TIME TO FORM FOCK OPERATORS=       5.3 SECONDS (       0.3 SEC/ITER)
     FOCK TIME ON FIRST ITERATION=       0.0, LAST ITERATION=       0.8
     TIME TO SOLVE SCF EQUATIONS=       0.1 SECONDS (       0.0 SEC/ITER)

 FINAL R-B3LYP ENERGY IS     -133.8592828642 AFTER  18 ITERATIONS
 DFT EXCHANGE + CORRELATION ENERGY =       -15.7481839357
 TOTAL ELECTRON NUMBER             =        24.0000027073

          ------------
          EIGENVECTORS
          ------------

                      1          2          3          4          5
                  -14.3148   -10.2323   -10.1893    -0.8870    -0.7288
                     A'         A'         A'         A'         A'  
    1  C  1  S   -0.000003   0.002836   0.992870  -0.049050  -0.179571
    2  C  1  S    0.000039  -0.000042   0.050243   0.090162   0.346089
    3  C  1  X   -0.000009   0.000207   0.000007  -0.012505  -0.019181
    4  C  1  Y    0.000058   0.000251  -0.000074  -0.044132  -0.010392
    5  C  1  Z    0.000000   0.000000   0.000000   0.000000   0.000000
    6  C  1  S   -0.000364   0.003334  -0.017432   0.067686   0.314946
    7  C  1  X    0.000228  -0.001262   0.000576   0.009130  -0.002156
    8  C  1  Y    0.000116  -0.001568   0.001143  -0.013539   0.005052
    9  C  1  Z    0.000000   0.000000   0.000000   0.000000   0.000000
   10  C  1 XX   -0.000011  -0.000232  -0.009216  -0.001182   0.001831
   11  C  1 YY   -0.000075  -0.000397  -0.009273   0.005819  -0.003256
   12  C  1 ZZ   -0.000019  -0.000107  -0.009193  -0.001422   0.000974
   13  C  1 XY   -0.000001  -0.000181  -0.000054   0.003187  -0.001556
   14  C  1 XZ    0.000000   0.000000   0.000000   0.000000   0.000000
   15  C  1 YZ    0.000000   0.000000   0.000000   0.000000   0.000000
   16  C  2  S    0.000048   0.992773  -0.003073  -0.132941  -0.049852
   17  C  2  S    0.000390   0.048653  -0.000395   0.262261   0.097520
   18  C  2  X   -0.000015   0.000133  -0.000126   0.085268  -0.007964
   19  C  2  Y   -0.000063  -0.000071  -0.000111  -0.106023   0.184803
   20  C  2  Z    0.000000   0.000000   0.000000   0.000000   0.000000
   21  C  2  S   -0.000527  -0.011527   0.004347   0.121433   0.086783
   22  C  2  X    0.000068  -0.000292   0.001184  -0.011325   0.002058
   23  C  2  Y    0.000915  -0.001553   0.002449   0.014860   0.035087
   24  C  2  Z    0.000000   0.000000   0.000000   0.000000   0.000000
   25  C  2 XX   -0.000152  -0.009279  -0.000139  -0.001073   0.001485
   26  C  2 YY   -0.000319  -0.009016  -0.000385   0.007426   0.002117
   27  C  2 ZZ   -0.000017  -0.009630  -0.000138  -0.016763  -0.003879
   28  C  2 XY    0.000277  -0.000257  -0.000127  -0.012389   0.016074
   29  C  2 XZ    0.000000   0.000000   0.000000   0.000000   0.000000
   30  C  2 YZ    0.000000   0.000000   0.000000   0.000000   0.000000
   31  N  3  S    0.992761  -0.000272  -0.000024  -0.169933   0.082995
   32  N  3  S    0.034490  -0.000229  -0.000131   0.352037  -0.177022
   33  N  3  X    0.000544   0.000121   0.000022   0.005829  -0.028362
   34  N  3  Y    0.001420  -0.000244  -0.000048   0.144073  -0.023149
   35  N  3  Z    0.000000   0.000000   0.000000   0.000000   0.000000
   36  N  3  S    0.003977   0.001550   0.000347   0.345438  -0.190671
   37  N  3  X   -0.000630   0.000181  -0.000515   0.014192  -0.021242
   38  N  3  Y   -0.000157   0.000166   0.000170   0.056146  -0.008894
   39  N  3  Z    0.000000   0.000000   0.000000   0.000000   0.000000
   40  N  3 XX   -0.008038  -0.000296   0.000018   0.002719  -0.004979
   41  N  3 YY   -0.007895  -0.000338   0.000034   0.002443   0.006935
   42  N  3 ZZ   -0.008180  -0.000036  -0.000144  -0.014451   0.005429
   43  N  3 XY   -0.000170   0.000154  -0.000042  -0.002506  -0.001027
   44  N  3 XZ    0.000000   0.000000   0.000000   0.000000   0.000000
   45  N  3 YZ    0.000000   0.000000   0.000000   0.000000   0.000000
   46  H  4  S    0.000003  -0.000156  -0.000042   0.023264   0.114444
   47  H  4  S   -0.000050   0.000432   0.002713   0.000741   0.025679
   48  H  5  S    0.000003  -0.000156  -0.000042   0.023264   0.114444
   49  H  5  S   -0.000050   0.000432   0.002713   0.000741   0.025679
   50  H  6  S    0.000027  -0.000125  -0.000043   0.019905   0.120206
   51  H  6  S    0.000024  -0.000061   0.002674   0.004854   0.029401
   52  H  7  S    0.000039  -0.000333  -0.000122   0.046173   0.037547
   53  H  7  S    0.000022   0.002143   0.000097  -0.002213   0.012155
   54  H  8  S    0.000272   0.000030  -0.000028   0.108259  -0.068554
   55  H  8  S   -0.000178  -0.000024   0.000377  -0.000902  -0.005833

                      6          7          8          9         10
                   -0.5858    -0.4565    -0.4398    -0.4310    -0.3806
                     A'         A'         A'         A''        A'  
    1  C  1  S    0.060359   0.014624  -0.011273   0.000000   0.008425
    2  C  1  S   -0.117284  -0.027832   0.022259   0.000000  -0.018297
    3  C  1  X   -0.106437  -0.250696  -0.069951   0.000000   0.342945
    4  C  1  Y   -0.085644  -0.061942   0.379331   0.000000  -0.045592
    5  C  1  Z    0.000000   0.000000   0.000000   0.423304   0.000000
    6  C  1  S   -0.147722  -0.044094   0.017885   0.000000  -0.034974
    7  C  1  X   -0.037845  -0.107735  -0.042142   0.000000   0.165474
    8  C  1  Y   -0.017377  -0.032398   0.176603   0.000000  -0.023563
    9  C  1  Z    0.000000   0.000000   0.000000   0.196783   0.000000
   10  C  1 XX    0.001443   0.003258   0.008906   0.000000   0.004719
   11  C  1 YY    0.007665   0.007285  -0.003569   0.000000  -0.018449
   12  C  1 ZZ   -0.006692  -0.012672  -0.000045   0.000000   0.016713
   13  C  1 XY    0.009195   0.002188  -0.017758   0.000000   0.012096
   14  C  1 XZ    0.000000   0.000000   0.000000   0.021280   0.000000
   15  C  1 YZ    0.000000   0.000000   0.000000  -0.002131   0.000000
   16  C  2  S   -0.133754  -0.008879   0.046741   0.000000   0.005746
   17  C  2  S    0.281163   0.014212  -0.104385   0.000000  -0.021905
   18  C  2  X   -0.175836  -0.146524  -0.244397   0.000000  -0.301742
   19  C  2  Y   -0.019173   0.306994  -0.188430   0.000000   0.017584
   20  C  2  Z    0.000000   0.000000   0.000000   0.167490   0.000000
   21  C  2  S    0.281824   0.003705  -0.090943   0.000000   0.017489
   22  C  2  X   -0.055143  -0.064104  -0.087416   0.000000  -0.110516
   23  C  2  Y    0.014102   0.112679  -0.060135   0.000000  -0.006433
   24  C  2  Z    0.000000   0.000000   0.000000   0.082958   0.000000
   25  C  2 XX    0.003209   0.014597   0.001532   0.000000   0.025190
   26  C  2 YY   -0.008929  -0.008772   0.009770   0.000000  -0.017534
   27  C  2 ZZ   -0.011622   0.001229   0.002413   0.000000   0.002319
   28  C  2 XY    0.002212   0.001205  -0.009219   0.000000   0.006520
   29  C  2 XZ    0.000000   0.000000   0.000000   0.008732   0.000000
   30  C  2 YZ    0.000000   0.000000   0.000000   0.005649   0.000000
   31  N  3  S    0.055045  -0.001462  -0.053894   0.000000  -0.000921
   32  N  3  S   -0.118576  -0.006027   0.119304   0.000000   0.000204
   33  N  3  X   -0.238950   0.329948  -0.093325   0.000000   0.099102
   34  N  3  Y    0.068545  -0.173754  -0.121825   0.000000  -0.176670
   35  N  3  Z    0.000000   0.000000   0.000000   0.096750   0.000000
   36  N  3  S   -0.159122   0.068346   0.179322   0.000000  -0.001944
   37  N  3  X   -0.093666   0.134313  -0.038714   0.000000   0.040451
   38  N  3  Y    0.016237  -0.045765  -0.073428   0.000000  -0.090354
   39  N  3  Z    0.000000   0.000000   0.000000   0.056448   0.000000
   40  N  3 XX   -0.012847   0.022235   0.005078   0.000000   0.016615
   41  N  3 YY    0.012532  -0.016325  -0.018876   0.000000  -0.015771
   42  N  3 ZZ    0.004406  -0.003025   0.001581   0.000000   0.001944
   43  N  3 XY   -0.016176   0.012740  -0.009784   0.000000  -0.001026
   44  N  3 XZ    0.000000   0.000000   0.000000   0.000520   0.000000
   45  N  3 YZ    0.000000   0.000000   0.000000   0.009355   0.000000
   46  H  4  S   -0.081448  -0.102288   0.005816   0.216413   0.128850
   47  H  4  S   -0.038526  -0.068045   0.007503   0.171199   0.121356
   48  H  5  S   -0.081448  -0.102288   0.005816  -0.216413   0.128850
   49  H  5  S   -0.038526  -0.068045   0.007503  -0.171199   0.121356
   50  H  6  S   -0.044443   0.057580   0.215137   0.000000  -0.189263
   51  H  6  S   -0.020217   0.049377   0.159880   0.000000  -0.160556
   52  H  7  S    0.187648   0.102447   0.087797   0.000000   0.200079
   53  H  7  S    0.083433   0.078646   0.075631   0.000000   0.180920
   54  H  8  S   -0.166154   0.190572  -0.013906   0.000000   0.076005
   55  H  8  S   -0.075848   0.135207  -0.017954   0.000000   0.092982

                     11         12         13         14         15
                   -0.2950    -0.2519    -0.0042     0.1020     0.1215
                     A''        A'         A''        A'         A'  
    1  C  1  S    0.000000   0.032001   0.000000  -0.100865   0.012520
    2  C  1  S    0.000000  -0.066034   0.000000   0.114514  -0.009522
    3  C  1  X    0.000000   0.061361   0.000000   0.112644   0.166929
    4  C  1  Y    0.000000   0.199684   0.000000   0.149721  -0.194687
    5  C  1  Z   -0.150107   0.000000   0.017320   0.000000   0.000000
    6  C  1  S    0.000000  -0.217687   0.000000   1.691544  -0.350308
    7  C  1  X    0.000000   0.099990   0.000000   0.264139   0.418582
    8  C  1  Y    0.000000   0.114528   0.000000   0.441041  -0.513401
    9  C  1  Z   -0.093551   0.000000   0.190216   0.000000   0.000000
   10  C  1 XX    0.000000   0.001238   0.000000  -0.010042   0.000238
   11  C  1 YY    0.000000   0.002071   0.000000  -0.006813   0.005534
   12  C  1 ZZ    0.000000   0.000364   0.000000  -0.008310  -0.003912
   13  C  1 XY    0.000000  -0.008487   0.000000   0.012488  -0.013843
   14  C  1 XZ   -0.015322   0.000000  -0.023663   0.000000   0.000000
   15  C  1 YZ   -0.011525   0.000000  -0.019961   0.000000   0.000000
   16  C  2  S    0.000000  -0.020058   0.000000  -0.005297   0.082383
   17  C  2  S    0.000000   0.048030   0.000000   0.048603  -0.135339
   18  C  2  X    0.000000  -0.046984   0.000000  -0.008200   0.246842
   19  C  2  Y    0.000000  -0.178481   0.000000   0.055870  -0.004901
   20  C  2  Z    0.345692   0.000000   0.461592   0.000000   0.000000
   21  C  2  S    0.000000   0.000253   0.000000  -0.016264  -1.236926
   22  C  2  X    0.000000   0.002194   0.000000  -0.107581   0.593518
   23  C  2  Y    0.000000   0.051213   0.000000   0.048944   0.077396
   24  C  2  Z    0.240456   0.000000   0.533802   0.000000   0.000000
   25  C  2 XX    0.000000   0.021361   0.000000   0.013267   0.018833
   26  C  2 YY    0.000000  -0.027521   0.000000   0.002121  -0.004046
   27  C  2 ZZ    0.000000  -0.002806   0.000000  -0.004034  -0.000624
   28  C  2 XY    0.000000  -0.014894   0.000000  -0.008737   0.001371
   29  C  2 XZ    0.008500   0.000000  -0.016580   0.000000   0.000000
   30  C  2 YZ   -0.022631   0.000000   0.024046   0.000000   0.000000
   31  N  3  S    0.000000   0.080525   0.000000  -0.053834  -0.033953
   32  N  3  S    0.000000  -0.167637   0.000000   0.085966   0.040851
   33  N  3  X    0.000000   0.243289   0.000000   0.224280   0.047083
   34  N  3  Y    0.000000   0.444223   0.000000   0.054220  -0.012897
   35  N  3  Z    0.450444   0.000000  -0.416836   0.000000   0.000000
   36  N  3  S    0.000000  -0.337250   0.000000   0.772236   0.494117
   37  N  3  X    0.000000   0.124323   0.000000   0.480521   0.018411
   38  N  3  Y    0.000000   0.344899   0.000000   0.120457   0.028380
   39  N  3  Z    0.310614   0.000000  -0.503606   0.000000   0.000000
   40  N  3 XX    0.000000   0.011904   0.000000  -0.003692  -0.016557
   41  N  3 YY    0.000000   0.027829   0.000000  -0.010526  -0.001613
   42  N  3 ZZ    0.000000  -0.007396   0.000000  -0.018849  -0.012317
   43  N  3 XY    0.000000   0.014831   0.000000   0.008805   0.010940
   44  N  3 XZ    0.003003   0.000000  -0.021145   0.000000   0.000000
   45  N  3 YZ    0.029645   0.000000  -0.001121   0.000000   0.000000
   46  H  4  S   -0.104201   0.004729  -0.091302  -0.005881  -0.016213
   47  H  4  S   -0.094282   0.021908  -0.359419  -0.844281  -0.235906
   48  H  5  S    0.104201   0.004729   0.091302  -0.005881  -0.016213
   49  H  5  S    0.094282   0.021908   0.359419  -0.844281  -0.235906
   50  H  6  S    0.000000   0.062433   0.000000  -0.057266   0.064153
   51  H  6  S    0.000000   0.126238   0.000000  -0.865211   1.112528
   52  H  7  S    0.000000   0.107148   0.000000   0.059099   0.091060
   53  H  7  S    0.000000   0.151028   0.000000   0.003585   1.467918
   54  H  8  S    0.000000   0.143357   0.000000  -0.042556  -0.070768
   55  H  8  S    0.000000   0.162414   0.000000  -1.064828  -0.515619

                     16         17         18         19         20
                    0.1368     0.1770     0.1903     0.2713     0.3327
                     A'         A''        A'         A'         A'  
    1  C  1  S   -0.112042   0.000000   0.054285   0.061868   0.005223
    2  C  1  S    0.127091   0.000000  -0.061894  -0.022440   0.025083
    3  C  1  X    0.093079   0.000000   0.315285   0.044224  -0.008285
    4  C  1  Y   -0.021554   0.000000  -0.080766   0.215767   0.056678
    5  C  1  Z    0.000000  -0.434998   0.000000   0.000000   0.000000
    6  C  1  S    1.940474   0.000000  -0.891796  -1.300235  -0.644991
    7  C  1  X    0.373280   0.000000   1.332320   0.384700   0.927881
    8  C  1  Y   -0.317294   0.000000  -0.124065   1.792848   0.281227
    9  C  1  Z    0.000000  -1.401133   0.000000   0.000000   0.000000
   10  C  1 XX   -0.005662   0.000000   0.007067  -0.012351   0.035245
   11  C  1 YY   -0.000131   0.000000   0.015918   0.044249  -0.020234
   12  C  1 ZZ   -0.017172   0.000000  -0.011305  -0.016599  -0.010228
   13  C  1 XY   -0.016101   0.000000   0.008024   0.023504   0.019503
   14  C  1 XZ    0.000000   0.009006   0.000000   0.000000   0.000000
   15  C  1 YZ    0.000000  -0.009867   0.000000   0.000000   0.000000
   16  C  2  S    0.026076   0.000000  -0.095658  -0.080021   0.055329
   17  C  2  S    0.009263   0.000000   0.165433   0.067950   0.046465
   18  C  2  X   -0.011182   0.000000  -0.134171   0.382293  -0.019292
   19  C  2  Y   -0.128989   0.000000   0.097227   0.259279   0.186049
   20  C  2  Z    0.000000   0.135510   0.000000   0.000000   0.000000
   21  C  2  S   -0.526713   0.000000   1.469752   2.011470  -1.947104
   22  C  2  X   -0.121253   0.000000  -0.621492   1.703194  -0.950026
   23  C  2  Y   -0.490710   0.000000   0.573050   0.516833   2.777662
   24  C  2  Z    0.000000   0.430197   0.000000   0.000000   0.000000
   25  C  2 XX    0.008194   0.000000   0.012196  -0.002434  -0.008349
   26  C  2 YY    0.007895   0.000000  -0.019547  -0.002965   0.028615
   27  C  2 ZZ   -0.001520   0.000000  -0.001977   0.004587  -0.013197
   28  C  2 XY    0.022570   0.000000   0.006872  -0.002945  -0.019855
   29  C  2 XZ    0.000000  -0.006759   0.000000   0.000000   0.000000
   30  C  2 YZ    0.000000  -0.009741   0.000000   0.000000   0.000000
   31  N  3  S    0.063917   0.000000   0.001248   0.050688  -0.091250
   32  N  3  S   -0.094725   0.000000  -0.037189  -0.054754   0.110740
   33  N  3  X   -0.202580   0.000000   0.052479  -0.063361  -0.304719
   34  N  3  Y   -0.023430   0.000000  -0.102501  -0.104080   0.146967
   35  N  3  Z    0.000000  -0.139689   0.000000   0.000000   0.000000
   36  N  3  S   -0.916449   0.000000   0.307273  -1.213569   2.523413
   37  N  3  X   -0.391888   0.000000   0.115796  -0.274006  -1.141892
   38  N  3  Y   -0.105868   0.000000  -0.002156  -0.712025   1.277023
   39  N  3  Z    0.000000  -0.180998   0.000000   0.000000   0.000000
   40  N  3 XX    0.017251   0.000000  -0.005069  -0.016865  -0.024960
   41  N  3 YY    0.014056   0.000000  -0.000708   0.012367   0.011765
   42  N  3 ZZ    0.013248   0.000000  -0.006693   0.028692  -0.032108
   43  N  3 XY   -0.006030   0.000000  -0.006992   0.001882  -0.018536
   44  N  3 XZ    0.000000  -0.006859   0.000000   0.000000   0.000000
   45  N  3 YZ    0.000000   0.004032   0.000000   0.000000   0.000000
   46  H  4  S   -0.063394   0.062429  -0.045875  -0.091003  -0.002663
   47  H  4  S   -1.031472   1.517267  -0.555793  -0.041344  -0.276599
   48  H  5  S   -0.063394  -0.062429  -0.045875  -0.091003  -0.002663
   49  H  5  S   -1.031472  -1.517267  -0.555793  -0.041344  -0.276599
   50  H  6  S    0.072312   0.000000   0.054912  -0.057945  -0.094209
   51  H  6  S   -0.079782   0.000000   1.587379  -0.596309   0.103309
   52  H  7  S    0.016474   0.000000  -0.026736  -0.024852   0.000992
   53  H  7  S    0.097488   0.000000  -1.341685   1.088854  -0.065747
   54  H  8  S    0.104743   0.000000  -0.019669  -0.053438   0.010314
   55  H  8  S    1.113300   0.000000  -0.175346   0.587656   0.755147

                     21         22         23         24         25
                    0.5354     0.5478     0.5613     0.6166     0.6276
                     A'         A''        A'         A'         A'' 
    1  C  1  S   -0.014109   0.000000  -0.012732  -0.008957   0.000000
    2  C  1  S    0.192636   0.000000   0.143324   0.160671   0.000000
    3  C  1  X   -0.624192   0.000000   0.335275  -0.289869   0.000000
    4  C  1  Y   -0.639220   0.000000  -0.600787  -0.138267   0.000000
    5  C  1  Z    0.000000  -0.435234   0.000000   0.000000  -0.639026
    6  C  1  S    0.125779   0.000000  -0.183484  -0.673039   0.000000
    7  C  1  X    0.910937   0.000000  -0.882879   0.608684   0.000000
    8  C  1  Y    0.642429   0.000000   1.154684   0.180687   0.000000
    9  C  1  Z    0.000000   0.920634   0.000000   0.000000   1.714837
   10  C  1 XX    0.015063   0.000000  -0.023766   0.003364   0.000000
   11  C  1 YY    0.045596   0.000000  -0.052652  -0.000760   0.000000
   12  C  1 ZZ   -0.038383   0.000000   0.082361   0.003210   0.000000
   13  C  1 XY    0.010785   0.000000   0.064003  -0.067905   0.000000
   14  C  1 XZ    0.000000  -0.071489   0.000000   0.000000  -0.093198
   15  C  1 YZ    0.000000   0.022539   0.000000   0.000000   0.017129
   16  C  2  S    0.056094   0.000000   0.008172   0.002884   0.000000
   17  C  2  S    0.090851   0.000000   0.024109   0.453012   0.000000
   18  C  2  X   -0.088436   0.000000   0.128912   0.205284   0.000000
   19  C  2  Y    0.218571   0.000000  -0.233433  -0.805361   0.000000
   20  C  2  Z    0.000000  -0.818206   0.000000   0.000000   0.602536
   21  C  2  S   -0.187580   0.000000   0.991631   0.197678   0.000000
   22  C  2  X   -0.158861   0.000000   0.376236  -0.026293   0.000000
   23  C  2  Y   -0.310419   0.000000  -0.299602   1.084509   0.000000
   24  C  2  Z    0.000000   0.645086   0.000000   0.000000  -1.214283
   25  C  2 XX    0.047393   0.000000  -0.037693   0.089174   0.000000
   26  C  2 YY    0.113970   0.000000   0.084275   0.015057   0.000000
   27  C  2 ZZ   -0.055480   0.000000  -0.008291  -0.009691   0.000000
   28  C  2 XY    0.074363   0.000000   0.010740   0.034816   0.000000
   29  C  2 XZ    0.000000  -0.018365   0.000000   0.000000   0.033122
   30  C  2 YZ    0.000000   0.024667   0.000000   0.000000   0.004985
   31  N  3  S   -0.018929   0.000000   0.039781   0.028756   0.000000
   32  N  3  S    0.108350   0.000000   0.031698   0.051085   0.000000
   33  N  3  X    0.029325   0.000000  -0.012543  -0.032292   0.000000
   34  N  3  Y    0.043070   0.000000   0.277591  -0.063590   0.000000
   35  N  3  Z    0.000000  -0.122860   0.000000   0.000000   0.240870
   36  N  3  S    0.015057   0.000000  -0.972335   0.105192   0.000000
   37  N  3  X   -0.075749   0.000000   0.191994   0.388565   0.000000
   38  N  3  Y    0.268919   0.000000  -0.676323  -0.494398   0.000000
   39  N  3  Z    0.000000   0.030954   0.000000   0.000000   0.029402
   40  N  3 XX    0.048949   0.000000   0.057444  -0.004255   0.000000
   41  N  3 YY   -0.025630   0.000000  -0.025785   0.104997   0.000000
   42  N  3 ZZ   -0.002016   0.000000   0.004809  -0.014902   0.000000
   43  N  3 XY    0.024659   0.000000  -0.035738  -0.098689   0.000000
   44  N  3 XZ    0.000000   0.035089   0.000000   0.000000   0.005804
   45  N  3 YZ    0.000000  -0.040910   0.000000   0.000000   0.041302
   46  H  4  S   -0.158809  -0.292764   0.158986  -0.022442  -0.292619
   47  H  4  S   -0.083140  -0.223573   0.063490  -0.035822  -0.365475
   48  H  5  S   -0.158809   0.292764   0.158986  -0.022442   0.292619
   49  H  5  S   -0.083140   0.223573   0.063490  -0.035822   0.365475
   50  H  6  S    0.045744   0.000000  -0.455891   0.148181   0.000000
   51  H  6  S    0.087218   0.000000  -0.278602  -0.015610   0.000000
   52  H  7  S    0.160999   0.000000  -0.220745   0.320761   0.000000
   53  H  7  S   -0.045203   0.000000   0.222769  -0.146618   0.000000
   54  H  8  S    0.161331   0.000000   0.197834  -0.277468   0.000000
   55  H  8  S   -0.132155   0.000000   0.173925   0.089474   0.000000

                     26         27         28         29         30
                    0.7323     0.7443     0.7816     0.7918     0.8648
                     A'         A'         A''        A'         A'  
    1  C  1  S   -0.011016  -0.030869   0.000000  -0.044748   0.029407
    2  C  1  S   -0.081899   0.150709   0.000000   0.025884   0.000515
    3  C  1  X   -0.004827   0.342842   0.000000  -0.445550  -0.300282
    4  C  1  Y   -0.014805  -0.349712   0.000000   0.066728   0.195441
    5  C  1  Z    0.000000   0.000000   0.081414   0.000000   0.000000
    6  C  1  S    0.207522  -1.036420   0.000000  -0.570647  -0.568720
    7  C  1  X    0.154204  -0.837868   0.000000   1.610066   0.157027
    8  C  1  Y    0.152362   1.688911   0.000000   0.312616   0.025433
    9  C  1  Z    0.000000   0.000000   0.273311   0.000000   0.000000
   10  C  1 XX   -0.028021  -0.066825   0.000000   0.070185  -0.001864
   11  C  1 YY    0.016232  -0.002331   0.000000  -0.100486  -0.048055
   12  C  1 ZZ   -0.007976   0.042348   0.000000  -0.020197   0.061225
   13  C  1 XY   -0.001602  -0.079778   0.000000  -0.014421   0.047222
   14  C  1 XZ    0.000000   0.000000  -0.040348   0.000000   0.000000
   15  C  1 YZ    0.000000   0.000000  -0.012115   0.000000   0.000000
   16  C  2  S   -0.061745   0.013576   0.000000  -0.027962  -0.017729
   17  C  2  S    0.073506  -0.559025   0.000000  -0.838319   0.991628
   18  C  2  X    0.181691  -0.757851   0.000000  -0.249548  -0.743721
   19  C  2  Y   -0.359224  -0.183762   0.000000  -0.417461  -0.008999
   20  C  2  Z    0.000000   0.000000   0.299854   0.000000   0.000000
   21  C  2  S   -0.438546   1.322535   0.000000   1.939820  -1.595698
   22  C  2  X   -0.542376   2.588290   0.000000  -0.001843   2.319319
   23  C  2  Y    0.642455   0.495126   0.000000   1.423746   0.038945
   24  C  2  Z    0.000000   0.000000  -0.866542   0.000000   0.000000
   25  C  2 XX   -0.101775   0.016284   0.000000  -0.157275  -0.027174
   26  C  2 YY   -0.076298  -0.030347   0.000000  -0.019144   0.132923
   27  C  2 ZZ    0.076717  -0.033123   0.000000   0.023142   0.060542
   28  C  2 XY    0.146215   0.017973   0.000000  -0.016297  -0.020775
   29  C  2 XZ    0.000000   0.000000   0.013057   0.000000   0.000000
   30  C  2 YZ    0.000000   0.000000   0.067953   0.000000   0.000000
   31  N  3  S    0.023280  -0.019963   0.000000  -0.003428   0.022281
   32  N  3  S   -0.002340   0.090874   0.000000  -0.255498  -0.072016
   33  N  3  X   -0.078289  -0.211198   0.000000   0.332570  -0.098325
   34  N  3  Y   -0.794941  -0.141508   0.000000   0.207258   0.059504
   35  N  3  Z    0.000000   0.000000  -0.928791   0.000000   0.000000
   36  N  3  S    0.455385  -0.721001   0.000000   0.690956  -0.261054
   37  N  3  X   -0.117908  -0.058834   0.000000  -0.369960  -0.154446
   38  N  3  Y    1.012384  -0.097498   0.000000  -0.221621  -0.512430
   39  N  3  Z    0.000000   0.000000   1.295157   0.000000   0.000000
   40  N  3 XX    0.140242  -0.011667   0.000000  -0.069367   0.053625
   41  N  3 YY    0.070206  -0.047500   0.000000  -0.069369  -0.040032
   42  N  3 ZZ   -0.029766   0.076507   0.000000  -0.017917  -0.045848
   43  N  3 XY   -0.092391   0.017768   0.000000  -0.006813  -0.005027
   44  N  3 XZ    0.000000   0.000000   0.027399   0.000000   0.000000
   45  N  3 YZ    0.000000   0.000000  -0.019392   0.000000   0.000000
   46  H  4  S   -0.091417  -0.197151  -0.170171  -0.212672   0.304814
   47  H  4  S   -0.029105   0.270724   0.053482  -0.532641  -0.263307
   48  H  5  S   -0.091417  -0.197151   0.170171  -0.212672   0.304814
   49  H  5  S   -0.029105   0.270724  -0.053482  -0.532641  -0.263307
   50  H  6  S   -0.081711  -0.053379   0.000000  -0.234286  -0.127232
   51  H  6  S   -0.156467  -0.986649   0.000000   0.543265   0.441271
   52  H  7  S   -0.357111   0.265861   0.000000  -0.585941  -0.392016
   53  H  7  S    0.129500   1.052507   0.000000   0.040852   2.237902
   54  H  8  S    0.441812  -0.166069   0.000000  -0.157291   0.271108
   55  H  8  S   -0.247048   0.064922   0.000000   0.015252  -0.378503

                     31         32         33         34         35
                    0.8655     0.9095     0.9297     0.9558     1.0142
                     A''        A'         A'         A'         A'  
    1  C  1  S    0.000000  -0.006599   0.027774   0.030938   0.014832
    2  C  1  S    0.000000  -0.139869  -0.768894  -0.987669   0.341504
    3  C  1  X    0.000000  -0.553328  -0.019277  -0.151539  -0.009814
    4  C  1  Y    0.000000   0.242214  -0.250473  -0.405971  -0.049088
    5  C  1  Z    0.838736   0.000000   0.000000   0.000000   0.000000
    6  C  1  S    0.000000   0.422519   1.183680   2.134091   0.100275
    7  C  1  X    0.000000   0.650417   0.485144   0.087530  -0.066530
    8  C  1  Y    0.000000  -0.258207   0.440523   0.838402  -0.514258
    9  C  1  Z   -1.366075   0.000000   0.000000   0.000000   0.000000
   10  C  1 XX    0.000000  -0.099852   0.025231  -0.047010   0.105365
   11  C  1 YY    0.000000  -0.088792  -0.061007  -0.105984   0.013371
   12  C  1 ZZ    0.000000   0.157293  -0.081081   0.038419  -0.037574
   13  C  1 XY    0.000000   0.080829  -0.106078  -0.033760   0.037204
   14  C  1 XZ   -0.196846   0.000000   0.000000   0.000000   0.000000
   15  C  1 YZ   -0.052258   0.000000   0.000000   0.000000   0.000000
   16  C  2  S    0.000000   0.007999  -0.012322  -0.021110   0.010090
   17  C  2  S    0.000000  -0.603256  -0.510061  -0.042553  -0.018698
   18  C  2  X    0.000000   0.176417   0.051866  -0.059416  -0.018529
   19  C  2  Y    0.000000   0.017884  -0.040504  -0.006097   0.284399
   20  C  2  Z   -0.015218   0.000000   0.000000   0.000000   0.000000
   21  C  2  S    0.000000   1.519991   1.478771  -0.313311   0.935030
   22  C  2  X    0.000000  -0.190508  -0.159669   0.114400  -0.929151
   23  C  2  Y    0.000000  -0.617056   0.276035   0.289431  -1.753989
   24  C  2  Z    0.178007   0.000000   0.000000   0.000000   0.000000
   25  C  2 XX    0.000000  -0.000951  -0.062063  -0.010362  -0.175992
   26  C  2 YY    0.000000  -0.021167   0.001450  -0.083300   0.153303
   27  C  2 ZZ    0.000000  -0.036580  -0.002782   0.048161   0.041519
   28  C  2 XY    0.000000  -0.016252  -0.049241  -0.005220  -0.044252
   29  C  2 XZ    0.065121   0.000000   0.000000   0.000000   0.000000
   30  C  2 YZ    0.068537   0.000000   0.000000   0.000000   0.000000
   31  N  3  S    0.000000   0.001760   0.006454  -0.012538  -0.015336
   32  N  3  S    0.000000  -0.145617  -0.420649   0.276826   0.429934
   33  N  3  X    0.000000  -0.388353  -0.551342   0.414182  -0.491559
   34  N  3  Y    0.000000  -0.151586   0.188077  -0.203147  -0.011473
   35  N  3  Z    0.199378   0.000000   0.000000   0.000000   0.000000
   36  N  3  S    0.000000  -0.223246   0.834296  -0.499151  -1.216176
   37  N  3  X    0.000000   0.859340   0.831214  -0.743922   2.029807
   38  N  3  Y    0.000000  -0.057345  -0.363975   0.470809  -0.146335
   39  N  3  Z   -0.264699   0.000000   0.000000   0.000000   0.000000
   40  N  3 XX    0.000000  -0.052949  -0.004392  -0.045094  -0.012067
   41  N  3 YY    0.000000  -0.029002  -0.119206   0.089843  -0.026183
   42  N  3 ZZ    0.000000   0.020057  -0.101324   0.111974   0.197408
   43  N  3 XY    0.000000   0.046374   0.036618  -0.023157  -0.106734
   44  N  3 XZ    0.011700   0.000000   0.000000   0.000000   0.000000
   45  N  3 YZ    0.008137   0.000000   0.000000   0.000000   0.000000
   46  H  4  S   -0.686505   0.345250   0.145620   0.500615  -0.015184
   47  H  4  S    1.440663  -0.694021  -0.472695  -0.941995   0.172501
   48  H  5  S    0.686505   0.345250   0.145620   0.500615  -0.015184
   49  H  5  S   -1.440663  -0.694021  -0.472695  -0.941995   0.172501
   50  H  6  S    0.000000  -0.713497   0.658361   0.275475   0.112526
   51  H  6  S    0.000000   1.116826  -0.886830  -0.958075   0.281381
   52  H  7  S    0.000000   0.450654  -0.076274  -0.103838  -0.550485
   53  H  7  S    0.000000  -0.811553  -0.261207   0.203942  -0.118074
   54  H  8  S    0.000000   0.009980   0.505483  -0.514601  -0.621480
   55  H  8  S    0.000000  -0.540769  -1.167806   1.171554  -0.421799

                     36         37         38         39         40
                    1.2674     1.3189     1.4079     1.4905     1.7355
                     A'         A'         A''        A''        A'' 
    1  C  1  S   -0.123100   0.072042   0.000000   0.000000   0.000000
    2  C  1  S   -1.763661   0.869974   0.000000   0.000000   0.000000
    3  C  1  X    0.035403  -0.089356   0.000000   0.000000   0.000000
    4  C  1  Y    0.158195   0.117185   0.000000   0.000000   0.000000
    5  C  1  Z    0.000000   0.000000   0.124054  -0.019092   0.064222
    6  C  1  S    5.693861  -3.915154   0.000000   0.000000   0.000000
    7  C  1  X   -0.567259   0.640431   0.000000   0.000000   0.000000
    8  C  1  Y   -0.992636   0.961679   0.000000   0.000000   0.000000
    9  C  1  Z    0.000000   0.000000   0.101791   0.167983  -0.255795
   10  C  1 XX   -0.122567  -0.085872   0.000000   0.000000   0.000000
   11  C  1 YY   -0.049295  -0.007655   0.000000   0.000000   0.000000
   12  C  1 ZZ   -0.072724   0.175820   0.000000   0.000000   0.000000
   13  C  1 XY    0.027966  -0.061759   0.000000   0.000000   0.000000
   14  C  1 XZ    0.000000   0.000000  -0.044920   0.107206  -0.001560
   15  C  1 YZ    0.000000   0.000000   0.598931  -0.140165   0.422224
   16  C  2  S    0.040152  -0.040010   0.000000   0.000000   0.000000
   17  C  2  S    0.305145  -0.869884   0.000000   0.000000   0.000000
   18  C  2  X   -0.071035  -0.037006   0.000000   0.000000   0.000000
   19  C  2  Y    0.049456  -0.058121   0.000000   0.000000   0.000000
   20  C  2  Z    0.000000   0.000000   0.001667  -0.168209   0.039816
   21  C  2  S   -0.987819   5.358715   0.000000   0.000000   0.000000
   22  C  2  X   -0.247240   2.247046   0.000000   0.000000   0.000000
   23  C  2  Y   -2.409323   0.104677   0.000000   0.000000   0.000000
   24  C  2  Z    0.000000   0.000000  -0.027998   0.026215   0.181239
   25  C  2 XX    0.051863  -0.101761   0.000000   0.000000   0.000000
   26  C  2 YY    0.048965  -0.014551   0.000000   0.000000   0.000000
   27  C  2 ZZ   -0.084821   0.063064   0.000000   0.000000   0.000000
   28  C  2 XY   -0.085213  -0.076763   0.000000   0.000000   0.000000
   29  C  2 XZ    0.000000   0.000000  -0.299596   0.624128  -0.060437
   30  C  2 YZ    0.000000   0.000000  -0.493968  -0.300285   0.050863
   31  N  3  S    0.035053   0.081857   0.000000   0.000000   0.000000
   32  N  3  S    0.803453   1.434034   0.000000   0.000000   0.000000
   33  N  3  X   -0.112697   0.051066   0.000000   0.000000   0.000000
   34  N  3  Y    0.177389   0.194058   0.000000   0.000000   0.000000
   35  N  3  Z    0.000000   0.000000  -0.086873  -0.133382   0.013513
   36  N  3  S   -2.508110  -5.022690   0.000000   0.000000   0.000000
   37  N  3  X    0.760273  -0.391324   0.000000   0.000000   0.000000
   38  N  3  Y   -0.880458  -1.852268   0.000000   0.000000   0.000000
   39  N  3  Z    0.000000   0.000000   0.015179  -0.025468  -0.090914
   40  N  3 XX    0.206860   0.334936   0.000000   0.000000   0.000000
   41  N  3 YY    0.196700   0.249140   0.000000   0.000000   0.000000
   42  N  3 ZZ   -0.054073   0.078737   0.000000   0.000000   0.000000
   43  N  3 XY    0.002339   0.053826   0.000000   0.000000   0.000000
   44  N  3 XZ    0.000000   0.000000  -0.315350  -0.063728   0.850206
   45  N  3 YZ    0.000000   0.000000   0.106507   0.533533   0.320599
   46  H  4  S   -0.452587   0.254061  -0.151800  -0.040789   0.015223
   47  H  4  S   -0.614454   0.101787   0.061489  -0.117292   0.091093
   48  H  5  S   -0.452587   0.254061   0.151800   0.040789  -0.015223
   49  H  5  S   -0.614454   0.101787  -0.061489   0.117292  -0.091093
   50  H  6  S   -0.446045   0.270637   0.000000   0.000000   0.000000
   51  H  6  S   -0.497908   0.530448   0.000000   0.000000   0.000000
   52  H  7  S   -0.013806   0.047913   0.000000   0.000000   0.000000
   53  H  7  S    0.014643   0.271484   0.000000   0.000000   0.000000
   54  H  8  S    0.029738   0.455441   0.000000   0.000000   0.000000
   55  H  8  S   -0.131056   0.671875   0.000000   0.000000   0.000000

                     41         42         43         44         45
                    1.7614     1.8085     1.8961     2.1229     2.1874
                     A'         A'         A'         A''        A'  
    1  C  1  S    0.019813   0.010670   0.048918   0.000000   0.022930
    2  C  1  S   -0.268536  -0.258207   0.107181   0.000000   0.224016
    3  C  1  X   -0.010810   0.122501   0.102004   0.000000  -0.078484
    4  C  1  Y    0.226284   0.116431   0.150680   0.000000   0.071697
    5  C  1  Z    0.000000   0.000000   0.000000   0.059738   0.000000
    6  C  1  S   -0.142708  -0.272786  -1.338713   0.000000  -1.144950
    7  C  1  X    0.516531  -0.258799  -0.179521   0.000000  -0.224191
    8  C  1  Y   -0.284642   0.327818   0.409053   0.000000   0.827032
    9  C  1  Z    0.000000   0.000000   0.000000   0.708402   0.000000
   10  C  1 XX   -0.662392   0.513740   0.177851   0.000000   0.263994
   11  C  1 YY    0.501836  -0.310193   0.217103   0.000000   0.191092
   12  C  1 ZZ    0.176023  -0.173994  -0.426229   0.000000  -0.415574
   13  C  1 XY   -0.051651   0.297291   0.337678   0.000000  -0.743970
   14  C  1 XZ    0.000000   0.000000   0.000000   0.490832   0.000000
   15  C  1 YZ    0.000000   0.000000   0.000000  -0.613026   0.000000
   16  C  2  S    0.013214   0.003148  -0.032857   0.000000  -0.052840
   17  C  2  S   -0.109258  -0.111336  -0.670556   0.000000  -0.212862
   18  C  2  X    0.035988   0.051962  -0.161007   0.000000   0.010285
   19  C  2  Y    0.002346  -0.087135  -0.189215   0.000000   0.214496
   20  C  2  Z    0.000000   0.000000   0.000000   0.016681   0.000000
   21  C  2  S   -0.517560   0.550302   1.893471   0.000000   1.370499
   22  C  2  X   -0.473569   1.852033   0.640024   0.000000   1.056295
   23  C  2  Y    1.180582  -0.115180   0.248921   0.000000   0.077129
   24  C  2  Z    0.000000   0.000000   0.000000  -0.393074   0.000000
   25  C  2 XX   -0.071999  -0.523184   0.209331   0.000000   0.255855
   26  C  2 YY    0.053374   0.340961   0.346800   0.000000   0.053378
   27  C  2 ZZ    0.009711   0.171419  -0.619544   0.000000  -0.411268
   28  C  2 XY    0.381037  -0.033676   0.273961   0.000000  -0.326259
   29  C  2 XZ    0.000000   0.000000   0.000000  -0.591797   0.000000
   30  C  2 YZ    0.000000   0.000000   0.000000  -0.446953   0.000000
   31  N  3  S   -0.022976   0.025244  -0.008176   0.000000  -0.000894
   32  N  3  S   -0.075518   0.169777  -0.003266   0.000000   0.030851
   33  N  3  X    0.058377   0.213456   0.052587   0.000000   0.113076
   34  N  3  Y    0.254282  -0.039999  -0.080584   0.000000  -0.160226
   35  N  3  Z    0.000000   0.000000   0.000000  -0.030995   0.000000
   36  N  3  S    1.250539  -1.350162  -0.434983   0.000000  -0.765364
   37  N  3  X   -0.355130  -0.522810   0.277457   0.000000  -0.403897
   38  N  3  Y    0.244145  -0.589275  -0.181550   0.000000  -0.232524
   39  N  3  Z    0.000000   0.000000   0.000000   0.116857   0.000000
   40  N  3 XX    0.230474   0.152727   0.247831   0.000000   0.158157
   41  N  3 YY   -0.434928  -0.327559   0.105906   0.000000  -0.262790
   42  N  3 ZZ    0.200125   0.209654  -0.422547   0.000000  -0.042133
   43  N  3 XY   -0.334856  -0.335924   0.154016   0.000000  -0.454565
   44  N  3 XZ    0.000000   0.000000   0.000000   0.213385   0.000000
   45  N  3 YZ    0.000000   0.000000   0.000000   0.183305   0.000000
   46  H  4  S    0.071813  -0.001981   0.317852  -0.379444   0.285753
   47  H  4  S   -0.176167  -0.045187   0.062488  -0.134181   0.015152
   48  H  5  S    0.071813  -0.001981   0.317852   0.379444   0.285753
   49  H  5  S   -0.176167  -0.045187   0.062488   0.134181   0.015152
   50  H  6  S    0.104244   0.099049   0.139475   0.000000  -0.611753
   51  H  6  S    0.166128  -0.132193  -0.090246   0.000000   0.037385
   52  H  7  S    0.047651   0.795362  -0.177566   0.000000  -0.069833
   53  H  7  S   -0.198196   0.588286   0.017952   0.000000   0.297525
   54  H  8  S   -0.147670   0.168271  -0.348651   0.000000   0.105110
   55  H  8  S    0.078226   0.189844   0.003702   0.000000   0.210550

                     46         47         48         49         50
                    2.2179     2.2298     2.3100     2.5046     2.5208
                     A''        A'         A'         A''        A'  
    1  C  1  S    0.000000   0.014662   0.017848   0.000000   0.049692
    2  C  1  S    0.000000   0.262224   0.134861   0.000000   0.046118
    3  C  1  X    0.000000   0.079846   0.046904   0.000000   0.078325
    4  C  1  Y    0.000000  -0.074252   0.047931   0.000000   0.221841
    5  C  1  Z    0.109038   0.000000   0.000000   0.021251   0.000000
    6  C  1  S    0.000000  -0.721974  -0.393056   0.000000  -1.582056
    7  C  1  X    0.000000   0.563413   0.073686   0.000000   0.464304
    8  C  1  Y    0.000000   0.095129   0.391706   0.000000   0.697294
    9  C  1  Z    0.216074   0.000000   0.000000   0.153772   0.000000
   10  C  1 XX    0.000000  -0.407054   0.202197   0.000000   0.313398
   11  C  1 YY    0.000000  -0.292773  -0.424105   0.000000  -0.717174
   12  C  1 ZZ    0.000000   0.683303   0.226677   0.000000   0.518978
   13  C  1 XY    0.000000   0.134881  -0.404832   0.000000   0.011461
   14  C  1 XZ    0.887691   0.000000   0.000000   0.491278   0.000000
   15  C  1 YZ    0.316719   0.000000   0.000000   0.201362   0.000000
   16  C  2  S    0.000000  -0.052332   0.007788   0.000000  -0.062097
   17  C  2  S    0.000000  -0.191379   0.228417   0.000000   0.024172
   18  C  2  X    0.000000   0.010807   0.169895   0.000000   0.159805
   19  C  2  Y    0.000000   0.250619   0.269357   0.000000  -0.087071
   20  C  2  Z    0.125709   0.000000   0.000000  -0.106063   0.000000
   21  C  2  S    0.000000   0.103975  -0.449393   0.000000   2.524414
   22  C  2  X    0.000000  -0.290460  -0.243858   0.000000   1.164030
   23  C  2  Y    0.000000   0.508232   0.441730   0.000000   0.350153
   24  C  2  Z    0.150440   0.000000   0.000000  -0.257730   0.000000
   25  C  2 XX    0.000000  -0.137371  -0.096393   0.000000   0.682790
   26  C  2 YY    0.000000   0.337304  -0.058613   0.000000  -0.038820
   27  C  2 ZZ    0.000000  -0.421660   0.280404   0.000000  -0.667203
   28  C  2 XY    0.000000  -0.420036   0.371031   0.000000   0.284790
   29  C  2 XZ    0.413903   0.000000   0.000000  -0.305230   0.000000
   30  C  2 YZ   -0.078769   0.000000   0.000000   0.840039   0.000000
   31  N  3  S    0.000000  -0.025484  -0.031373   0.000000   0.043594
   32  N  3  S    0.000000  -0.627180  -0.225132   0.000000   0.515279
   33  N  3  X    0.000000   0.157600  -0.052586   0.000000  -0.023573
   34  N  3  Y    0.000000  -0.292464   0.129281   0.000000   0.033350
   35  N  3  Z    0.027690   0.000000   0.000000   0.054786   0.000000
   36  N  3  S    0.000000   1.415002   1.232810   0.000000  -1.974292
   37  N  3  X    0.000000  -0.171814   0.432355   0.000000  -0.125284
   38  N  3  Y    0.000000   0.651555   0.374628   0.000000  -0.983679
   39  N  3  Z   -0.212242   0.000000   0.000000   0.308029   0.000000
   40  N  3 XX    0.000000   0.145344   0.840339   0.000000   0.010431
   41  N  3 YY    0.000000   0.093230  -0.225462   0.000000  -0.445519
   42  N  3 ZZ    0.000000  -0.446177  -0.569050   0.000000   0.548541
   43  N  3 XY    0.000000  -0.307937   0.229233   0.000000  -0.034566
   44  N  3 XZ    0.091901   0.000000   0.000000  -0.428361   0.000000
   45  N  3 YZ   -0.523800   0.000000   0.000000   0.698634   0.000000
   46  H  4  S   -0.520221  -0.224139  -0.068922  -0.259172  -0.161415
   47  H  4  S    0.104908   0.040559   0.056025   0.059293   0.034968
   48  H  5  S    0.520221  -0.224139  -0.068922   0.259172  -0.161415
   49  H  5  S   -0.104908   0.040559   0.056025  -0.059293   0.034968
   50  H  6  S    0.000000   0.465422  -0.138319   0.000000   0.261231
   51  H  6  S    0.000000   0.047063  -0.060242   0.000000   0.006336
   52  H  7  S    0.000000   0.001546   0.112213   0.000000  -0.417698
   53  H  7  S    0.000000  -0.178022  -0.029137   0.000000   0.419833
   54  H  8  S    0.000000  -0.198994  -0.892637   0.000000   0.305518
   55  H  8  S    0.000000  -0.123824   0.016154   0.000000   0.132111

                     51         52         53         54         55
                    2.7680     2.7848     3.7522     4.1019     4.3357
                     A'         A'         A'         A'         A'  
    1  C  1  S    0.042055   0.040848  -0.014395  -0.303607  -0.392944
    2  C  1  S   -0.050352  -0.167750   0.127288   1.748901   2.266771
    3  C  1  X    0.128890   0.128436  -0.014603  -0.050812   0.083586
    4  C  1  Y    0.211403   0.213841  -0.063173  -0.059754   0.138130
    5  C  1  Z    0.000000   0.000000   0.000000   0.000000   0.000000
    6  C  1  S   -0.912163  -0.478439   0.176856   1.202618   2.500867
    7  C  1  X    0.240863   0.170834   0.136724   0.087806  -0.131721
    8  C  1  Y    0.495675   0.251905  -0.144569   0.147801  -0.179359
    9  C  1  Z    0.000000   0.000000   0.000000   0.000000   0.000000
   10  C  1 XX    0.141587  -0.050176  -0.119624  -1.098520  -1.547860
   11  C  1 YY   -0.280266  -0.005468  -0.016443  -1.029072  -1.686970
   12  C  1 ZZ    0.216658   0.210062  -0.008112  -1.200669  -1.459169
   13  C  1 XY   -0.390083  -0.539741   0.017286   0.107917  -0.148768
   14  C  1 XZ    0.000000   0.000000   0.000000   0.000000   0.000000
   15  C  1 YZ    0.000000   0.000000   0.000000   0.000000   0.000000
   16  C  2  S   -0.030752  -0.066508  -0.064764  -0.368894   0.281181
   17  C  2  S   -0.449785   0.474732   0.669896   2.316189  -1.796814
   18  C  2  X   -0.283733   0.337591   0.127452  -0.075180   0.140590
   19  C  2  Y    0.745516  -0.394013  -0.193027   0.158879  -0.008892
   20  C  2  Z    0.000000   0.000000   0.000000   0.000000   0.000000
   21  C  2  S   -0.296896   2.002820  -1.593999   1.280007  -1.458385
   22  C  2  X   -0.032196   0.342434  -0.845561   0.088126  -0.056808
   23  C  2  Y    1.202882  -0.461393   0.779786  -0.067424  -0.398017
   24  C  2  Z    0.000000   0.000000   0.000000   0.000000   0.000000
   25  C  2 XX   -0.263063  -0.688590  -0.311784  -1.445641   1.139305
   26  C  2 YY    0.001501   1.054309  -0.116751  -1.551978   1.496976
   27  C  2 ZZ    0.023677  -0.534946  -0.232772  -1.399365   1.040458
   28  C  2 XY    0.979713  -0.037691  -0.082213   0.175792   0.066097
   29  C  2 XZ    0.000000   0.000000   0.000000   0.000000   0.000000
   30  C  2 YZ    0.000000   0.000000   0.000000   0.000000   0.000000
   31  N  3  S   -0.039164   0.055269  -0.485123   0.079500  -0.026142
   32  N  3  S   -0.115114   0.109208   0.969608  -0.036048   0.078261
   33  N  3  X   -0.103484   0.197445  -0.000624  -0.097103   0.085958
   34  N  3  Y    0.350883  -0.274339  -0.176511   0.236047  -0.148643
   35  N  3  Z    0.000000   0.000000   0.000000   0.000000   0.000000
   36  N  3  S    1.522212  -1.720026   4.257471  -0.901824   0.157622
   37  N  3  X   -0.773741   0.633848   0.002646  -0.065429   0.127321
   38  N  3  Y    0.850394  -0.815423   0.921096  -0.147869  -0.095289
   39  N  3  Z    0.000000   0.000000   0.000000   0.000000   0.000000
   40  N  3 XX   -0.606384  -0.274486  -1.532326   0.290517  -0.202678
   41  N  3 YY    0.973100  -0.139138  -1.510608   0.417393  -0.258290
   42  N  3 ZZ   -0.280057   0.435276  -1.579023   0.235594  -0.010194
   43  N  3 XY   -0.570356   0.819529   0.036887  -0.150612   0.143319
   44  N  3 XZ    0.000000   0.000000   0.000000   0.000000   0.000000
   45  N  3 YZ    0.000000   0.000000   0.000000   0.000000   0.000000
   46  H  4  S   -0.008830  -0.010705  -0.018630   0.113360   0.049029
   47  H  4  S    0.020036  -0.023584   0.006210  -0.377044  -0.377057
   48  H  5  S   -0.008830  -0.010705  -0.018630   0.113360   0.049029
   49  H  5  S    0.020036  -0.023584   0.006210  -0.377044  -0.377057
   50  H  6  S   -0.077901  -0.162067   0.044006   0.089057   0.061706
   51  H  6  S   -0.049783   0.147128  -0.025466  -0.304692  -0.423362
   52  H  7  S    0.119849   0.214540   0.070222   0.145474  -0.060365
   53  H  7  S   -0.056446  -0.220208  -0.261392  -0.299999   0.279848
   54  H  8  S    0.354207   0.099617   0.070617  -0.002159   0.048708
   55  H  8  S    0.096368  -0.140188  -0.642283   0.118764  -0.103372
 ...... END OF RHF CALCULATION ......
 STEP CPU TIME =     5.53 TOTAL CPU TIME =          5.6 (      0.1 MIN)
 TOTAL WALL CLOCK TIME=          5.7 SECONDS, CPU UTILIZATION IS    97.38%

     ---------------------------------------------------------------------
     PROPERTIES FOR THE B3LYP    DFT FUNCTIONAL (RHF  TYPE) DENSITY MATRIX
     ---------------------------------------------------------------------

          -----------------
          ENERGY COMPONENTS
          -----------------

         WAVEFUNCTION NORMALIZATION =       1.0000000000

                ONE ELECTRON ENERGY =    -319.2179156503
                TWO ELECTRON ENERGY =     114.7644490848
           NUCLEAR REPULSION ENERGY =      70.5941837013
                                      ------------------
                       TOTAL ENERGY =    -133.8592828642

 ELECTRON-ELECTRON POTENTIAL ENERGY =     114.7644490848
  NUCLEUS-ELECTRON POTENTIAL ENERGY =    -451.8108886222
   NUCLEUS-NUCLEUS POTENTIAL ENERGY =      70.5941837013
                                      ------------------
             TOTAL POTENTIAL ENERGY =    -266.4522558361
               TOTAL KINETIC ENERGY =     132.5929729719
                 VIRIAL RATIO (V/T) =       2.0095503545

          ---------------------------------------
          MULLIKEN AND LOWDIN POPULATION ANALYSES
          ---------------------------------------

     ATOMIC MULLIKEN POPULATION IN EACH MOLECULAR ORBITAL

                      1          2          3          4          5

                  2.000000   2.000000   2.000000   2.000000   2.000000

    1            -0.000008   0.000813   1.997285   0.115887   1.079044
    2            -0.000273   1.998618   0.001099   0.581175   0.310822
    3             2.000291   0.000145   0.000005   1.197323   0.218727
    4            -0.000000   0.000014   0.000537   0.004393   0.110557
    5            -0.000000   0.000014   0.000537   0.004393   0.110557
    6             0.000000  -0.000002   0.000531   0.004347   0.127161
    7             0.000001   0.000399   0.000002   0.013230   0.013900
    8            -0.000010  -0.000001   0.000005   0.079254   0.029233

                      6          7          8          9         10

                  2.000000   2.000000   2.000000   2.000000   2.000000

    1             0.235639   0.377814   0.820338   0.999316   0.593249
    2             0.707856   0.487117   0.485505   0.195395   0.364063
    3             0.439673   0.607242   0.250879   0.061341   0.166352
    4             0.057665   0.079426   0.000514   0.371974   0.131228
    5             0.057665   0.079426   0.000514   0.371974   0.131228
    6             0.015617   0.028976   0.371530   0.000000   0.255524
    7             0.286819   0.088837   0.068190   0.000000   0.299890
    8             0.199065   0.251161   0.002529   0.000000   0.058466

                     11         12

                  2.000000   2.000000

    1             0.096647   0.182305
    2             0.681041   0.117214
    3             1.091522   1.477027
    4             0.065395   0.002219
    5             0.065395   0.002219
    6             0.000000   0.041075
    7             0.000000   0.078348
    8             0.000000   0.099593

               ----- POPULATIONS IN EACH AO -----
                             MULLIKEN      LOWDIN
              1  C  1  S      1.99184     1.97894
              2  C  1  S      0.67906     0.36403
              3  C  1  X      0.71822     0.64513
              4  C  1  Y      0.70907     0.63825
              5  C  1  Z      0.72029     0.64458
              6  C  1  S      0.63731     0.33215
              7  C  1  X      0.34296     0.47259
              8  C  1  Y      0.30797     0.41727
              9  C  1  Z      0.36360     0.48881
             10  C  1 XX      0.00062     0.14705
             11  C  1 YY     -0.00106     0.14924
             12  C  1 ZZ      0.00638     0.15558
             13  C  1 XY      0.00999     0.01816
             14  C  1 XZ      0.00987     0.01827
             15  C  1 YZ      0.00220     0.00444
             16  C  2  S      1.99177     1.97695
             17  C  2  S      0.72439     0.36888
             18  C  2  X      0.74746     0.66037
             19  C  2  Y      0.73830     0.64949
             20  C  2  Z      0.50506     0.45882
             21  C  2  S      0.47767     0.31076
             22  C  2  X      0.22023     0.39496
             23  C  2  Y      0.14151     0.31229
             24  C  2  Z      0.36022     0.40128
             25  C  2 XX      0.01518     0.18385
             26  C  2 YY      0.00788     0.18615
             27  C  2 ZZ     -0.02606     0.10396
             28  C  2 XY      0.01487     0.03340
             29  C  2 XZ      0.00229     0.00369
             30  C  2 YZ      0.00886     0.01761
             31  N  3  S      1.99229     1.97770
             32  N  3  S      0.82340     0.55337
             33  N  3  X      0.78796     0.71207
             34  N  3  Y      0.93166     0.87348
             35  N  3  Z      0.65254     0.60911
             36  N  3  S      0.95798     0.44416
             37  N  3  X      0.34267     0.48694
             38  N  3  Y      0.53008     0.59576
             39  N  3  Z      0.49183     0.52929
             40  N  3 XX      0.01554     0.20717
             41  N  3 YY     -0.01442     0.18225
             42  N  3 ZZ     -0.01606     0.16288
             43  N  3 XY      0.00658     0.01284
             44  N  3 XZ     -0.00035     0.00091
             45  N  3 YZ      0.00884     0.01113
             46  H  4  S      0.52167     0.48107
             47  H  4  S      0.30225     0.34752
             48  H  5  S      0.52167     0.48107
             49  H  5  S      0.30225     0.34752
             50  H  6  S      0.52712     0.48659
             51  H  6  S      0.31764     0.35253
             52  H  7  S      0.53014     0.49182
             53  H  7  S      0.31947     0.35873
             54  H  8  S      0.51548     0.47129
             55  H  8  S      0.20381     0.28585

          ----- MULLIKEN ATOMIC OVERLAP POPULATIONS -----
          (OFF-DIAGONAL ELEMENTS NEED TO BE MULTIPLIED BY 2)

             1           2           3           4           5

    1    5.2390264
    2    0.3399005   4.7464583
    3   -0.0698422   0.6212994   6.7298269
    4    0.3719550  -0.0292400  -0.0053872   0.5300225
    5    0.3719550  -0.0292400  -0.0053872  -0.0241134   0.5300225
    6    0.3431937  -0.0193958   0.0055381  -0.0256516  -0.0256516
    7   -0.0806811   0.3717008  -0.0433151   0.0034391   0.0034391
    8   -0.0171777  -0.0718517   0.2777956   0.0028965   0.0028965

             6           7           8

    6    0.5650647
    7    0.0010360   0.5848536
    8    0.0006259   0.0091441   0.5149648

          TOTAL MULLIKEN AND LOWDIN ATOMIC POPULATIONS
       ATOM         MULL.POP.    CHARGE          LOW.POP.     CHARGE
    1 C             6.498330   -0.498330         6.474500   -0.474500
    2 C             5.929631    0.070369         6.062471   -0.062471
    3 N             7.510528   -0.510528         7.359043   -0.359043
    4 H             0.823921    0.176079         0.828586    0.171414
    5 H             0.823921    0.176079         0.828586    0.171414
    6 H             0.844759    0.155241         0.839117    0.160883
    7 H             0.849616    0.150384         0.850555    0.149445
    8 H             0.719294    0.280706         0.757141    0.242859

          -------------------------------
          BOND ORDER AND VALENCE ANALYSIS     BOND ORDER THRESHOLD=0.050
          -------------------------------

[...]
 PLEASE VERIFY THE PROGRAM'S DECISION MANUALLY!


 MODE(S)     1 TO     1 TREATED AS IMAGINARY.

 MODES    2 TO    7 ARE TAKEN AS ROTATIONS AND TRANSLATIONS.

 ANALYZING SYMMETRY OF NORMAL MODES...

 --- SYMMETRY FOR NORMAL MODES ---
 INCLUDING TRANSLATION AND ROTATION
   16*A'    10*A'' 
 EXCLUDING TRANSLATION AND ROTATION (SAYVETZ < 0.01)
   11*A'     5*A'' 

     FREQUENCIES IN CM**-1, IR INTENSITIES IN DEBYE**2/AMU-ANGSTROM**2,
     REDUCED MASSES IN AMU.

                            1           2           3           4           5
       FREQUENCY:       182.97 I     22.72       17.28       13.09        0.38  
        SYMMETRY:         A''         A''         A'          A''         A'' 
    REDUCED MASS:      1.11023     1.51977     3.23711     3.01928     5.36417
    IR INTENSITY:      0.00004     0.00364     0.10201     0.14205     0.00000

  1   C            X  0.00007257  0.00029193 -0.16312891 -0.00001807  0.07910483
                   Y  0.00003471  0.00006106  0.03167108  0.00020222  0.07749115
                   Z  0.01455770  0.01688422 -0.00023022  0.18166610  0.10560095
  2   C            X  0.00003491  0.00008012  0.01317398  0.00017960  0.07866307
                   Y  0.00004753  0.00016773 -0.05731861  0.00010227  0.07771608
                   Z -0.07214011  0.12100571  0.00015810 -0.06791556  0.10426503
  3   N            X  0.00000155 -0.00009972  0.16271816  0.00034728  0.07827941
                   Y  0.00003086  0.00008042  0.01526001  0.00018363  0.07752681
                   Z  0.05016490 -0.11530288 -0.00001713 -0.13945523  0.10493824
  4   H            X  0.36794756  0.26132496 -0.17698936 -0.10638453  0.07754827
                   Y -0.21850426 -0.06302258  0.11496781 -0.10922722  0.07722875
                   Z -0.22727188 -0.16400094 -0.00058533  0.27216563  0.10676329
  5   H            X -0.36780029 -0.26070672 -0.17800557  0.10631624  0.08074241
                   Y  0.21854011  0.06294465  0.11497195  0.10981847  0.07736803
                   Z -0.22727365 -0.16400098 -0.00060991  0.27216567  0.10676682
  6   H            X  0.00008973  0.00042002 -0.26993439 -0.00013794  0.07936753
                   Y  0.00004987  0.00017412 -0.06261189  0.00009640  0.07771846
                   Z  0.48868504  0.28809978  0.00018317  0.19603786  0.10436669
  7   H            X  0.00003499  0.00008118  0.01230652  0.00017862  0.07866869
                   Y  0.00007776  0.00033969 -0.20041615 -0.00005824  0.07807953
                   Z -0.32530068  0.43388293  0.00063782 -0.20236344  0.10253564
  8   H            X  0.00000454 -0.00008378  0.14946066  0.00033242  0.07831673
                   Y  0.00000069 -0.00008060  0.14914411  0.00033376  0.07718343
                   Z  0.28049176 -0.40066444 -0.00047153 -0.00057812  0.10657065

 TRANS. SAYVETZ    X  0.00159025  0.00411192  0.01230822  0.00710857  3.38709853
                   Y  0.00158445  0.00422972  0.02288061  0.00719603  3.33871101
                   Z  0.00072087  0.03334893 -0.00195756 -0.04616186  4.51897605
               TOTAL  0.00235776  0.03386664  0.02605469  0.04725708  6.56053140

   ROT. SAYVETZ    X -0.14220727  5.29743622 -0.00779329 12.50150396  0.02468571
                   Y -0.06261552  5.30223553  0.00966326 -2.93490871 -0.03297056
                   Z -0.00306266 -0.01740673 14.48556163  0.01624367 -0.03662822
               TOTAL  0.15541233  7.49512076 14.48556695 12.84140002  0.05511868

                            6           7           8           9          10
       FREQUENCY:         0.03        0.41      477.99      690.32      941.76  
        SYMMETRY:         A'          A''         A'          A''         A'  
    REDUCED MASS:      5.38397     5.35530     2.25319     1.43475     2.54778
    IR INTENSITY:      0.00000     0.00001     0.18203     0.15564     0.06131

  1   C            X  0.10816303 -0.07327909 -0.02171614 -0.00000149  0.02697513
                   Y -0.10715798 -0.07557939  0.11113618  0.00000055  0.17097400
                   Z -0.00202590  0.11155165  0.00000033  0.02141734  0.00000236
  2   C            X  0.10835490 -0.07277977  0.13092804 -0.00000604 -0.09146956
                   Y -0.10725645 -0.07583345 -0.00176307 -0.00000466 -0.08862519
                   Z -0.00199472  0.10968167  0.00000262  0.12726673 -0.00000412
  3   N            X  0.10852747 -0.07234760 -0.07354064  0.00000135  0.02531946
                   Y -0.10717749 -0.07562088 -0.10851176 -0.00000170 -0.08251041
                   Z -0.00200620  0.10998555 -0.00000192 -0.09385922  0.00000258
  4   H            X  0.10817894 -0.07472225 -0.05666547  0.14217079  0.09784497
                   Y -0.10706564 -0.07587796  0.28890331  0.31604625 -0.02965797
                   Z -0.00204581  0.11262887  0.00310835 -0.12451795 -0.02300567
  5   H            X  0.10811993 -0.07192572 -0.05665719 -0.14217518  0.09784630
                   Y -0.10707674 -0.07483948  0.28888506 -0.31605426 -0.02966690
                   Z -0.00205006  0.11262551 -0.00310437 -0.12451945  0.02300904
  6   H            X  0.10805044 -0.07357693 -0.24550773  0.00000047  0.29757017
                   Y -0.10726353 -0.07583806 -0.08520387  0.00000231  0.41297152
                   Z -0.00200694  0.11088766 -0.00001354 -0.21788843 -0.00000907
  7   H            X  0.10836049 -0.07278539  0.12838009 -0.00000609 -0.09285429
                   Y -0.10742221 -0.07624355  0.07495098 -0.00000941 -0.21899174
                   Z -0.00195818  0.10785979 -0.00000042 -0.41968799  0.00001075
  8   H            X  0.10851655 -0.07238897 -0.04826389  0.00000045  0.01571550
                   Y -0.10701965 -0.07523400 -0.36241063  0.00000747  0.03134867
                   Z -0.00204099  0.11174502 -0.00000041  0.42034901 -0.00002134

 TRANS. SAYVETZ    X  4.66339440 -3.13405323 -0.00014712 -0.00008105 -0.00000420
                   Y -4.61382786 -3.25686973 -0.00029043 -0.00008083  0.00008928
                   Z -0.08652149  4.75503071 -0.00000186 -0.00002165 -0.00000146
               TOTAL  6.56065095  6.56047309  0.00032557  0.00011649  0.00008939

   ROT. SAYVETZ    X -0.00075675  0.06075596 -0.00000630 -0.00074504 -0.00000597
                   Y  0.00067701 -0.03431923 -0.00000322 -0.00426618 -0.00000049
                   Z  0.01615127  0.04134745  0.01159911  0.00015547 -0.00156799
               TOTAL  0.01618315  0.08110923  0.01159911  0.00433354  0.00156801

                           11          12          13          14          15
       FREQUENCY:      1060.33     1072.64     1154.88     1289.61     1417.09  
        SYMMETRY:         A'          A''         A''         A'          A'  
    REDUCED MASS:      1.44802     1.53486     1.11093     1.30361     1.21036
    IR INTENSITY:      0.32116     0.39976     1.04627     1.78619     0.14996

  1   C            X  0.12439204 -0.00002016  0.00000052 -0.06609239 -0.06593614
                   Y  0.00034556 -0.00000439  0.00000042  0.00973210 -0.09359505
                   Z  0.00001837  0.12183163  0.02149639  0.00000040  0.00000033
  2   C            X -0.09003384  0.00001472 -0.00000033  0.07320284 -0.02986750
                   Y -0.06079249  0.00001044 -0.00000028  0.01489752 -0.01156376
                   Z -0.00001781 -0.11500330 -0.07854831 -0.00000024 -0.00000054
  3   N            X -0.00068053 -0.00000030  0.00000003 -0.01725755  0.02998222
                   Y -0.01792696  0.00000482 -0.00000034 -0.09309621  0.00476885
                   Z  0.00000848  0.05177891 -0.03913976  0.00000014  0.00000022
  4   H            X -0.01130932  0.25443231  0.05283787  0.03310654  0.19574271
                   Y  0.38045955  0.36472141  0.06715733 -0.13444920  0.40186872
                   Z  0.04998321 -0.11910664 -0.02321204 -0.04924333 -0.23206407
  5   H            X -0.01138070 -0.25443861 -0.05283635  0.03310341  0.19573876
                   Y  0.38035236 -0.36484320 -0.06715338 -0.13445333  0.40185557
                   Z -0.05001541 -0.11909538 -0.02321148  0.04924153  0.23206112
  6   H            X -0.24227748  0.00002623  0.00000064  0.07080454  0.32485058
                   Y -0.31194971  0.00003462  0.00000059  0.12352456  0.26432860
                   Z -0.00003960 -0.24348639 -0.05191507  0.00000067  0.00000656
  7   H            X -0.09145902  0.00001493 -0.00000032  0.08185744 -0.02794518
                   Y  0.07700718 -0.00000989  0.00000049  0.47897958  0.30323365
                   Z  0.00000995  0.04855896  0.67562351 -0.00000187 -0.00000353
  8   H            X -0.04328719  0.00000648 -0.00000019 -0.06375418  0.03569269
                   Y  0.44288500 -0.00006952  0.00000213  0.66666055 -0.18552990
                   Z -0.00006315 -0.36763321  0.64586559 -0.00000074 -0.00000048

 TRANS. SAYVETZ    X -0.00007257 -0.00002779  0.00000433 -0.00000182 -0.00005509
                   Y -0.00006083 -0.00002764  0.00000429  0.00001177 -0.00009203
                   Z -0.00000042 -0.00002493  0.00002177  0.00000006  0.00000016
               TOTAL  0.00009469  0.00004645  0.00002261  0.00001191  0.00010726

   ROT. SAYVETZ    X -0.00000196 -0.00181697 -0.00027832  0.00000046  0.00000137
                   Y -0.00000034 -0.00092426 -0.00027739  0.00000001  0.00000046
                   Z -0.00011550  0.00005364 -0.00000810  0.00116924 -0.00050250
               TOTAL  0.00011552  0.00203924  0.00039303  0.00116924  0.00050250

                           16          17          18          19          20
       FREQUENCY:      1451.43     1507.24     1517.11     1738.94     3044.79  
        SYMMETRY:         A'          A'          A''         A'          A'  
    REDUCED MASS:      1.22342     1.06309     1.04426     7.99299     1.03698
    IR INTENSITY:      0.52140     0.23144     0.15962     1.48920     0.19399

  1   C            X  0.02469670 -0.02673539  0.00000102  0.00439786 -0.03522619
                   Y  0.04329178  0.05168632  0.00000252 -0.02248655 -0.03620462
                   Z  0.00000001  0.00000069 -0.05268955  0.00000007 -0.00000022
  2   C            X -0.07858237 -0.02077652 -0.00000077 -0.08214938 -0.00212404
                   Y -0.03289580 -0.02169293 -0.00000043  0.20796012  0.00109424
                   Z  0.00000025  0.00000035 -0.01939745 -0.00000001 -0.00000002
  3   N            X  0.07254340  0.00222463  0.00000026  0.06760703  0.00000828
                   Y -0.00763718  0.01917593  0.00000013 -0.14122373  0.00012802
                   Z -0.00000009 -0.00000008  0.00427904  0.00000001  0.00000001
  4   H            X -0.12399174  0.47104912 -0.18471960  0.02510989  0.35530259
                   Y -0.15140656 -0.15546025  0.43718011  0.01287088  0.05145112
                   Z  0.12358196 -0.32389066  0.04846843 -0.02075936  0.50740727
  5   H            X -0.12399104  0.47104436  0.18473019  0.02510918  0.35529947
                   Y -0.15139938 -0.15544597 -0.43719218  0.01287108  0.05145065
                   Z -0.12358101  0.32388960  0.04847230  0.02075912 -0.50740423
  6   H            X -0.11964714 -0.38368046 -0.00000959 -0.06403627 -0.29562255
                   Y -0.08011089 -0.28946755 -0.00000730 -0.08573244  0.31745465
                   Z -0.00000421 -0.00001119  0.70638182 -0.00000031 -0.00000011
  7   H            X -0.08742595 -0.02599743 -0.00000094 -0.08604535  0.03020504
                   Y  0.72679548  0.02104140  0.00000118 -0.13783171 -0.00273755
                   Z  0.00000140  0.00000033  0.00899533 -0.00000025 -0.00000029
  8   H            X  0.08875319  0.00236737  0.00000032  0.08618447 -0.00059487
                   Y -0.36151447 -0.04424849 -0.00000147 -0.04837236 -0.00134965
                   Z  0.00000014  0.00000005 -0.01344258  0.00000002  0.00000009

 TRANS. SAYVETZ    X  0.00003320 -0.00002364  0.00000701 -0.00009745 -0.00001809
                   Y  0.00003396 -0.00001781  0.00000701 -0.00000402 -0.00000546
                   Z -0.00000000 -0.00000060  0.00000228  0.00000010  0.00000005
               TOTAL  0.00004750  0.00002961  0.00001017  0.00009753  0.00001889

   ROT. SAYVETZ    X  0.00000008 -0.00000156  0.00107617  0.00000032  0.00000022
                   Y -0.00000015  0.00000030  0.00112752  0.00000007  0.00000003
                   Z -0.00001439  0.00067330 -0.00001313  0.00031938 -0.00001991
               TOTAL  0.00001439  0.00067331  0.00155872  0.00031938  0.00001991

                           21          22          23          24
       FREQUENCY:      3093.46     3104.31     3133.63     3360.66  
        SYMMETRY:         A'          A''         A'          A'  
    REDUCED MASS:      1.08842     1.10095     1.10131     1.07412
    IR INTENSITY:      0.80562     0.31544     0.64565     0.34280

  1   C            X  0.01809803  0.00000002  0.07137702 -0.00003992
                   Y -0.00842588  0.00000045 -0.04752573  0.00053234
                   Z  0.00000013 -0.08771738 -0.00000035  0.00000000
  2   C            X -0.07956176 -0.00000019  0.01910430 -0.00368778
                   Y  0.00029409 -0.00000002  0.00047009 -0.00654767
                   Z  0.00000000 -0.00053794  0.00000000 -0.00000000
  3   N            X  0.00254928  0.00000001 -0.00175816 -0.06856541
                   Y -0.00012799  0.00000000 -0.00003203 -0.00022574
                   Z -0.00000000  0.00040111 -0.00000000 -0.00000000
  4   H            X -0.04503591  0.39934465 -0.15095120  0.00304919
                   Y -0.00980810  0.06170896 -0.03388898  0.00408703
                   Z -0.06868992  0.53556269 -0.23239991  0.00186287
  5   H            X -0.04503459 -0.39934579 -0.15095406  0.00304921
                   Y -0.00980790 -0.06170909 -0.03388945  0.00408705
                   Z  0.06868833  0.53556415  0.23240409 -0.00186291
  6   H            X -0.12210542  0.00000283 -0.55673703  0.00603139
                   Y  0.12732490 -0.00000318  0.62462727 -0.00807032
                   Z  0.00000003 -0.01914114 -0.00000006 -0.00000000
  7   H            X  0.93092805  0.00000212 -0.20977676  0.02524824
                   Y  0.00057324  0.00000000 -0.00166107  0.00775735
                   Z  0.00000002 -0.00378361  0.00000009  0.00000001
  8   H            X -0.02237028 -0.00000006  0.01556469  0.95963815
                   Y -0.00967124 -0.00000002  0.00554325  0.06689894
                   Z  0.00000001 -0.00293675 -0.00000005  0.00000000

 TRANS. SAYVETZ    X -0.00003599  0.00000179  0.00006325 -0.00004073
                   Y  0.00000875  0.00000177  0.00000249  0.00000004
                   Z  0.00000001 -0.00000248 -0.00000006 -0.00000000
               TOTAL  0.00003704  0.00000354  0.00006330  0.00004073

   ROT. SAYVETZ    X  0.00000001  0.00012377 -0.00000012 -0.00000001
                   Y -0.00000015  0.00036596  0.00000005  0.00000004
                   Z  0.00022368 -0.00000343  0.00021984 -0.00026008
               TOTAL  0.00022368  0.00038634  0.00021984  0.00026008

 REFERENCE ON SAYVETZ CONDITIONS - A. SAYVETZ, J.CHEM.PHYS., 7, 383-389(1939).

 NOTE - THE MODES J,K ARE ORTHONORMALIZED ACCORDING TO
 SUM ON I   M(I) * (X(I,J)*X(I,K) + Y(I,J)*Y(I,K) + Z(I,J)*Z(I,K)) = DELTA(J,K)

  MODE FREQ(CM**-1)  SYMMETRY  RED. MASS  IR INTENS.
     1     182.966    A''      1.110230    0.000043
     2      22.724    A''      1.519767    0.003643
     3      17.283    A'       3.237112    0.102011
     4      13.085    A''      3.019275    0.142050
     5       0.379    A''      5.364165    0.000003
     6       0.032    A'       5.383969    0.000001
     7       0.415    A''      5.355304    0.000006
     8     477.993    A'       2.253192    0.182026
     9     690.316    A''      1.434754    0.155644
    10     941.763    A'       2.547781    0.061313
    11    1060.330    A'       1.448019    0.321164
    12    1072.637    A''      1.534861    0.399760
    13    1154.884    A''      1.110927    1.046269
    14    1289.606    A'       1.303613    1.786195
    15    1417.089    A'       1.210360    0.149958
    16    1451.434    A'       1.223423    0.521398
    17    1507.240    A'       1.063087    0.231438
    18    1517.109    A''      1.044259    0.159618
    19    1738.937    A'       7.992986    1.489197
    20    3044.791    A'       1.036976    0.193994
    21    3093.459    A'       1.088420    0.805616
    22    3104.315    A''      1.100946    0.315437
    23    3133.627    A'       1.101309    0.645651
    24    3360.659    A'       1.074117    0.342797

     -------------------------------
     THERMOCHEMISTRY AT T=  298.15 K
     -------------------------------

 USING IDEAL GAS, RIGID ROTOR, HARMONIC NORMAL MODE APPROXIMATIONS.
 P=  1.01325E+05 PASCAL.
 ALL FREQUENCIES ARE SCALED BY   1.00000
 THE MOMENTS OF INERTIA ARE (IN AMU*BOHR**2)
             36.23483           184.87388           209.83552
 THE ROTATIONAL SYMMETRY NUMBER IS  1.0
 THE ROTATIONAL CONSTANTS ARE (IN GHZ)
     49.76119     9.75307     8.59286
   1 IMAGINARY FREQUENCY VIBRATION(S) IS(ARE) EXCLUDED
     FROM THE FOLLOWING THERMOCHEMICAL ANALYSIS.
      8 -     24 VIBRATIONAL MODES ARE USED IN THERMOCHEMISTRY.
 THE HARMONIC ZERO POINT ENERGY IS (SCALED BY   1.000)
        0.068473 HARTREE/MOLECULE    15028.094193 CM**-1/MOLECULE 
       42.967521 KCAL/MOL              179.776106 KJ/MOL

               Q               LN Q
 ELEC.     1.00000E+00       0.000000
 TRANS.    1.10993E+07      16.222392
 ROT.      1.34209E+04       9.504569
 VIB.      1.18890E+00       0.173025
 TOT.      1.77101E+11      25.899986

              E         H         G         CV        CP        S
           KJ/MOL    KJ/MOL    KJ/MOL   J/MOL-K   J/MOL-K   J/MOL-K
 ELEC.      0.000     0.000     0.000     0.000     0.000     0.000
 TRANS.     3.718     6.197   -40.214    12.472    20.786   155.666
 ROT.       3.718     3.718   -23.561    12.472    12.472    91.496
 VIB.     181.132   181.132   179.347    16.594    16.594     5.985
 TOTAL    188.569   191.047   115.572    41.537    49.851   253.147
 VIB. THERMAL CORRECTION E(T)-E(0) = H(T)-H(0) =      1355.588 J/MOL

              E         H         G         CV        CP        S
         KCAL/MOL  KCAL/MOL  KCAL/MOL CAL/MOL-K CAL/MOL-K CAL/MOL-K
 ELEC.      0.000     0.000     0.000     0.000     0.000     0.000
 TRANS.     0.889     1.481    -9.611     2.981     4.968    37.205
 ROT.       0.889     0.889    -5.631     2.981     2.981    21.868
 VIB.      43.292    43.292    42.865     3.966     3.966     1.431
 TOTAL     45.069    45.661    27.622     9.928    11.915    60.504
 VIB. THERMAL CORRECTION E(T)-E(0) = H(T)-H(0) =       323.993 CAL/MOL
 ......END OF NORMAL COORDINATE ANALYSIS......
 STEP CPU TIME =     0.00 TOTAL CPU TIME =        364.5 (      6.1 MIN)
 TOTAL WALL CLOCK TIME=        381.0 SECONDS, CPU UTILIZATION IS    95.67%
               1071827  WORDS OF DYNAMIC MEMORY USED
 EXECUTION OF GAMESS TERMINATED NORMALLY Mon Oct  3 21:34:52 2022
 DDI: 263640 bytes (0.3 MB / 0 MWords) used by master data server.

 ----------------------------------------
 CPU timing information for all processes
 ========================================
 0: 361.466 + 3.68 = 364.534
 ----------------------------------------
 ddikick.x: exited gracefully.
----- accounting info -----
Files used on the master node chemcompute-node-0.novalocal were:
-rw-r--r--. 1 chemcomp chemcomp      877 Oct  3 21:28 /scratch/120480/460049.F05
-rw-rw-r--. 1 chemcomp chemcomp 70451200 Oct  3 21:34 /scratch/120480/460049.F10
-rw-rw-r--. 1 chemcomp chemcomp  4141680 Oct  3 21:34 /scratch/120480/460049.F22
Mon Oct  3 21:34:55 UTC 2022
0.098u 0.040s 6:24.37 0.0%	0+0k 8+216io 0pf+0w
Finishing Up...
Looking for IR data...
Looking for Raman data...
vibramans not found
Looking for thermodynamics data...
Looking for UV-Vis data...
chemcompute.org
{'UTCtimestamp': '2022-10-03T21:34:57.630994', 'cluster': 'jetstream2', 'clusterJobNumber': '120480', 'status': 'COMPLETE', 'nodeList': 'chemcompute-node-0'}
120480
